1 : H2O_RHF.inp
2 : 00
3 : 1
----- GAMESS execution script 'rungms' -----
This job is running on host omen
under operating system Linux at Sun Jul 27 07:36:36 AM WEST 2025
Available scratch disk space (Kbyte units) at beginning of the job is
Filesystem      1K-blocks       Used Available Use% Mounted on
/dev/nvme1n1p3 1951850496 1827692736 121058752  94% /home
GAMESS temporary binary files will be written to /home/paulo/gamess/restart
GAMESS supplementary output files will be written to /home/paulo/gamess/restart
Copying input file /home/paulo/WORK/SPQ/H2O-CCD/non-eq/H2O_RHF.inp to your run's scratch directory...
removed '/home/paulo/gamess/restart/H2O_RHF.dat'

 Distributed Data Interface kickoff program.
 Initiating 1 compute processes on 1 nodes to run the following command:
 /home/paulo/WORK/BUILD/gamess-30Sep2023R2/gamess/gamess.00.x H2O_RHF 

          *******************************************************
          *                                                     *
          *          GAMESS VERSION = 30 SEP 2023 (R2)          *
          *                                                     *
          *              doi.org/10.1063/5.0005188              *
          *                                                     *
          **************** 64 BIT LINUX VERSION *****************

  GAMESS HAS BEEN MADE POSSIBLE WITH IMPORTANT CONTRIBUTIONS FROM
  THE FOLLOWING INDIVIDUALS (IN ALPHABETICAL ORDER):

     IVANA ADAMOVIC, CHRISTINE AIKENS, TOMOKO AKAMA,
     MELISA ALKAN, YURI ALEXEEV, YURIKO AOKI, POOJA ARORA,
     TOSHIO ASADA, ANDREY ASADCHEV, KIM K. BALDRIDGE,
     PRADIPTA BANDYOPADHYAY, TAYLOR A. BARNES, MARIA BARYSZ,
     ROB BELL, JONATHAN BENTZ, COLLEEN BERTONI,
     JERRY A. BOATZ, BRETT BODE, KURT BRORSEN, KURT R. BRORSEN,
     LAIMUTIS BYTAUTAS, CALEB CARLIN, LAURA CARRINGTON,
     GALINA CHABAN, BENOIT CHAMPAGNE, WEI CHEN, MAHITO CHIBA,
     DAN CHIPMAN, CHEOL HO CHOI, TANNER CULPITT,
     DIPAYAN DATTA, PAUL DAY, ALBERT DEFUSCO,
     NUWAN DESILVA, J. EMILIANO DEUSTUA,
     TIM DUDLEY, MICHEL DUPUIS, STEVEN T. ELBERT,
     DMITRI FEDOROV, KATHERINE FERRERAS, MICHAEL FILATOV,
     ALEX FINDLATER,GRAHAM FLETCHER, MARK FREITAG,
     CHRISTIAN FRIEDL, DAVID GARMER, 
     IGOR S. GERASIMOV, KURT GLAESEMANN,
     MARK S. GORDON, JEFFREY R. GOUR, FENG LONG GU,
     EMILIE B. GUIDEZ, ANASTASIA GUNINA, SHARON HAMMES-SCHIFFER,
     MASATAKE HARUTA, KIMIHIKO HIRAO, YASUHIRO IKABATA,
     TZVETELIN IORDANOV, STEPHAN IRLE, KAZUYA ISHIMURA,
     JOE IVANIC, FRANK JENSEN, JAN H. JENSEN, VISVALDAS KAIRYS,
     MUNEAKI KAMIYA, MICHIO KATOUDA, NAOAKI KAWAKAMI, DAN KEMP,
     BERNARD KIRTMAN, KAZUO KITAURA, MARIUSZ KLOBUKOWSKI,
     MASATO KOBAYASHI, KONSTANTIN KOMAROV, PRAKASHAN KORAMBATH,
     JACEK KORCHOWIEC, SHIRO KOSEKI, KAROL KOWALSKI,
     JIMMY KROMANN, STANISLAW A. KUCHARSKI, HENRY KURTZ,
     SAROM SOK LEANG, SEUNGHOON LEE, HUI LI, SHUHUA LI, WEI LI,
     JESSE J. LUTZ, ALEKSANDR O. LYKHIN,
     ILIAS MAGOULAS, MARCIN MAKOWSKI,
     JOANI MATO, NIKITA MATSUNAGA, BENEDETTA MENNUCCI,
     GRANT MERRILL, NORIYUKI MINEZAWA, VLADIMIR MIRONOV,
     EISAKU MIYOSHI, JOHN A. MONTGOMERY JR., HIROTOSHI MORI,
     JONATHAN MULLIN, MONIKA MUSIAL, SHIGERU NAGASE,
     TAKESHI NAGATA, HIROMI NAKAI, TAKAHITO NAKAJIMA,
     YUYA NAKAJIMA, HARUYUKI NAKANO, HIROYA NAKATA, SEAN NEDD,
     HEATHER NETZLOFF, KIET A. NGUYEN, YOSHIO NISHIMOTO,
     BOSILJKA NJEGIC, RYAN OLSON, MIKE PAK, ROBERTO PEVERATI,
     BUU PHAM, PIOTR PIECUCH, ANNA POMOGAEVA, DAVID POOLE,
     SPENCER PRUITT, OLIVIER QUINET, LUKE ROSKOP,
     KLAUS RUEDENBERG, ANDREW SAND, TOSAPORN SATTASATHUCHANA,
     NOZOMI SAWADA, MICHAEL W. SCHMIDT, PATRICK E. SCHNEIDER,
     JUNJI SEINO, PRACHI SHARMA, JUN SHEN, JIM SHOEMAKER,
     GEORGE SCHOENDORFF, YINAN SHU, DEJUN SI, JONATHAN SKONE,
     LYUDMILA SLIPCHENKO, TONY SMITH, JIE SONG, MARK SPACKMAN,
     CASPER STEINMANN, WALT STEVENS, PEIFENG SU, SHUJUN SU,
     CHET SWALINA, CHINAMI TAKASHIMA, TETSUYA TAKETSUGU,
     ZHEN TAO, NANDUN THELLAMUREGE, SEIKEN TOKURA,
     JACOPO TOMASI, TSUGUKI TOUMA, TAKAO TSUNEDA, HIROAKI UMEDA,
     JORGE LUIS GALVEZ VALLEJO, YALI WANG, SIMON WEBB,
     AARON WEST, THERESA L. WINDUS, MARTA WLOCH,
     PENG XU, KIYOSHI YAGI, SUSUMU YANAGISAWA, YANG YANG,
     SOOHAENG YOO, TAKESHI YOSHIKAWA, FEDERICO ZAHARIEV,
     TOBY ZENG

  WHO ARE SUPPORTED BY THEIR INSTITUTION/UNIVERSITY/COMPANY/GROUP
  (IN ALPHABETICAL ORDER):

     EP ANALYTICS,
     FACULTES UNIVERSITAIRES NOTRE-DAME DE LA PAIX,
     INSTITUTE FOR MOLECULAR SCIENCE, IOWA STATE UNIVERSITY,
     JACKSON STATE UNIVERSITY, JOHANNES KEPLER UNIVERSITY LINZ,
     KYUNGPOOK NATIONAL UNIVERSITY
     KYUSHU UNIVERSITY, MICHIGAN STATE UNIVERSITY,
     MIE UNIVERSITY, THE MOLECULAR SCIENCES SOFTWARE INSTITUTE,
     MOSCOW STATE UNIVERSITY,
     N. COPERNICUS UNIVERSITY, NAGOYA UNIVERSITY,
     NANJING UNIVERSITY, NAT. INST. OF ADVANCED INDUSTRIAL
     SCIENCE AND TECHNOLOGY, NATIONAL INST. OF STANDARDS AND
     TECHNOLOGY, NESMEYANOV INSTITUTE OF ORGANOELEMENT COMPOUNDS
     OF RUSSIAN ACADEMY OF SCIENCES, OSAKA PREFECTURE UNIVERSITY,
     PENNSYLVANIA STATE UNIVERSITY, TOKYO INSTITUTE OF TECHNOLOGY,
     UNIVERSITY OF AARHUS, UNIVERSITY OF ALBERTA,
     UNIVERSITY OF CALIFORNIA AT SANTA BARBARA,
     UNIVERSITY OF COPENHAGEN, UNIVERSITY OF IOWA,
     UNIVERSITY OF MEMPHIS, UNIVERSITY OF MINNESOTA,
     UNIVERSITY OF NEBRASKA, UNIVERSITY OF NEW ENGLAND,
     UNIVERSITY OF NOTRE DAME, UNIVERSITY OF PISA,
     UNIVERSITY OF SILESIA, UNIVERSITY OF TOKYO,
     UNIVERSITY OF ZURICH, WASEDA UNIVERSITY,
     YALE UNIVERSITY

  GAMESS SOFTWARE MANAGEMENT TEAM FOR THIS RELEASE:
     MARK S. GORDON (TEAM LEAD),
     BRETT BODE (SENIOR ADVISOR),
     GIUSEPPE BARCA,
     COLLEEN BERTONI,
     KRISTOPHER KEIPERT (ADVISOR),
     SAROM S. LEANG (DEVELOPMENT LEAD),
     BUU PHAM,
     JACKSON HAYES (WEBSITE ADMINISTRATOR),
     PENG XU

 EXECUTION OF GAMESS BEGUN 07:36:36 27-JUL-2025    

            ECHO OF THE FIRST FEW INPUT CARDS -
 INPUT CARD>!   File created by MacMolPlt 7.7.3                                             
 INPUT CARD> $CONTRL SCFTYP=RHF RUNTYP=ENERGY MAXIT=30 MULT=1 ISPHER=1 $END                 
 INPUT CARD> $SYSTEM TIMLIM=525600 MEMORY=65536000 MEMDDI=3750 $END                         
 INPUT CARD> $BASIS GBASIS=CCD $END                                                         
 INPUT CARD> $SCF DIRSCF=.TRUE. FDIFF=.FALSE. NCONV=7 $END                                  
 INPUT CARD> $DATA                                                                          
 INPUT CARD>Title                                                                           
 INPUT CARD>C1                                                                              
 INPUT CARD>O     8.0    -0.05922    -0.06452     0.00000                                   
 INPUT CARD>H     1.0    -0.47260     0.79970    -0.00000                                   
 INPUT CARD>H     1.0     1.91266     0.22460     0.00000                                   
 INPUT CARD> $END                                                                           
     65536000 WORDS OF MEMORY AVAILABLE

     BASIS OPTIONS
     -------------
     GBASIS=CCD          IGAUSS=       0      POLAR=NONE    
     NDFUNC=       0     NFFUNC=       0     DIFFSP=       F
     NPFUNC=       0      DIFFS=       F     BASNAM=        


     RUN TITLE
     ---------
 Title                                                                           

 THE POINT GROUP OF THE MOLECULE IS C1      
 THE ORDER OF THE PRINCIPAL AXIS IS     0

 ATOM      ATOMIC                      COORDINATES (BOHR)
           CHARGE         X                   Y                   Z
 O           8.0    -0.1119095730       -0.1219251207        0.0000000000
 H           1.0    -0.8930845018        1.5112138724       -0.0000000000
 H           1.0     3.6144033077        0.4244324568        0.0000000000

          INTERNUCLEAR DISTANCES (ANGS.)
          ------------------------------

                1 O          2 H          3 H     

   1 O       0.0000000    0.9579975 *  1.9929629 *
   2 H       0.9579975 *  0.0000000    2.4536107 *
   3 H       1.9929629 *  2.4536107 *  0.0000000  

  * ... LESS THAN  3.000


     ATOMIC BASIS SET
     ----------------
 THE CONTRACTED PRIMITIVE FUNCTIONS HAVE BEEN UNNORMALIZED
 THE CONTRACTED BASIS FUNCTIONS ARE NOW NORMALIZED TO UNITY

  SHELL TYPE  PRIMITIVE        EXPONENT          CONTRACTION COEFFICIENT(S)

 O         

      1   S       1         11720.0000000    0.000709645947
      1   S       2          1759.0000000    0.005467272292
      1   S       3           400.8000000    0.027823118610
      1   S       4           113.7000000    0.104747739711
      1   S       5            37.0300000    0.282920846357
      1   S       6            13.2700000    0.448495238698
      1   S       7             5.0250000    0.270816885213
      1   S       8             1.0130000    0.015450291607

      2   S       9         11720.0000000   -0.000314443412
      2   S      10          1759.0000000   -0.002482137681
      2   S      11           400.8000000   -0.012316355382
      2   S      12           113.7000000   -0.050538917344
      2   S      13            37.0300000   -0.139384903316
      2   S      14            13.2700000   -0.325077494818
      2   S      15             5.0250000   -0.229848307588
      2   S      16             1.0130000    1.095379346788

      3   S      17             0.3023000    1.000000000000

      4   P      18            17.7000000    0.062679166282
      4   P      19             3.8540000    0.333536565879
      4   P      20             1.0460000    0.741239641640

      5   P      21             0.2753000    1.000000000000

      6   D      22             1.1850000    1.000000000000

 H         

      7   S      23            13.0100000    0.033498726390
      7   S      24             1.9620000    0.234800801174
      7   S      25             0.4446000    0.813682957883

      8   S      26             0.1220000    1.000000000000

      9   P      27             0.7270000    1.000000000000

 H         

     10   S      28            13.0100000    0.033498726390
     10   S      29             1.9620000    0.234800801174
     10   S      30             0.4446000    0.813682957883

     11   S      31             0.1220000    1.000000000000

     12   P      32             0.7270000    1.000000000000

 TOTAL NUMBER OF BASIS SET SHELLS             =   12
 NUMBER OF CARTESIAN GAUSSIAN BASIS FUNCTIONS =   25
 NOTE: THIS RUN WILL RESTRICT THE MO VARIATION SPACE TO SPHERICAL HARMONICS.
 THE NUMBER OF ORBITALS KEPT IN THE VARIATIONAL SPACE WILL BE PRINTED LATER.
 NUMBER OF ELECTRONS                          =   10
 CHARGE OF MOLECULE                           =    0
 SPIN MULTIPLICITY                            =    1
 NUMBER OF OCCUPIED ORBITALS (ALPHA)          =    5
 NUMBER OF OCCUPIED ORBITALS (BETA )          =    5
 TOTAL NUMBER OF ATOMS                        =    3
 THE NUCLEAR REPULSION ENERGY IS        6.7588840849

     $CONTRL OPTIONS
     ---------------
 SCFTYP=RHF          RUNTYP=ENERGY       EXETYP=RUN     
 MPLEVL=       0     CITYP =NONE         CCTYP =NONE         VBTYP =NONE    
 DFTTYP=NONE         TDDFT =NONE    
 MULT  =       1     ICHARG=       0     NZVAR =       0     COORD =UNIQUE  
 PP    =NONE         RELWFN=NONE         LOCAL =NONE         NUMGRD=       F
 ISPHER=       1     NOSYM =       0     MAXIT =      30     UNITS =ANGS    
 PLTORB=       F     MOLPLT=       F     AIMPAC=       F     FRIEND=        
 NPRINT=       7     IREST =       0     GEOM  =INPUT   
 NORMF =       0     NORMP =       0     ITOL  =      20     ICUT  =       9
 INTTYP=BEST         GRDTYP=BEST         QMTTOL= 1.0E-06

     $SYSTEM OPTIONS
     ---------------
  REPLICATED MEMORY=    65536000 WORDS (ON EVERY NODE).
 DISTRIBUTED MEMDDI=        3750 MILLION WORDS IN AGGREGATE,
 MEMDDI DISTRIBUTED OVER   1 PROCESSORS IS  3750000000 WORDS/PROCESSOR.
 TOTAL MEMORY REQUESTED ON EACH PROCESSOR=  3815536000 WORDS.
 TIMLIM=      525600.00 MINUTES, OR     365.0 DAYS.
 PARALL= F  BALTYP=  DLB     KDIAG=    0  COREFL= F
 MXSEQ2=     300 MXSEQ3=     150  mem10=         0  mem22=         0

          ----------------
          PROPERTIES INPUT
          ----------------

     MOMENTS            FIELD           POTENTIAL          DENSITY
 IEMOM =       1   IEFLD =       0   IEPOT =       0   IEDEN =       0
 WHERE =COMASS     WHERE =NUCLEI     WHERE =NUCLEI     WHERE =NUCLEI  
 OUTPUT=BOTH       OUTPUT=BOTH       OUTPUT=BOTH       OUTPUT=BOTH    
 IEMINT=       0   IEFINT=       0                     IEDINT=       0
                                                       MORB  =       0
          EXTRAPOLATION IN EFFECT
          SOSCF IN EFFECT
 ORBITAL PRINTING OPTION: NPREO=     1    25     2     1

     -------------------------------
     INTEGRAL TRANSFORMATION OPTIONS
     -------------------------------
     NWORD  =            0
     CUTTRF = 1.0E-09     MPTRAN =       0
     DIRTRF =       T     AOINTS =DUP     

          ----------------------
          INTEGRAL INPUT OPTIONS
          ----------------------
 NOPK  =       1 NORDER=       0 SCHWRZ=       T

     ------------------------------------------
     THE POINT GROUP IS C1 , NAXIS= 0, ORDER= 1
     ------------------------------------------

 -- VARIATIONAL SPACE WILL BE RESTRICTED TO PURE SPHERICAL HARMONICS ONLY --
 AFTER EXCLUDING CONTAMINANT COMBINATIONS FROM THE CARTESIAN GAUSSIAN BASIS
 SET, THE NUMBER OF SPHERICAL HARMONICS KEPT IN THE VARIATION SPACE IS   24

     DIMENSIONS OF THE SYMMETRY SUBSPACES ARE
 A   =   24

 ..... DONE SETTING UP THE RUN .....
 STEP CPU TIME =     0.01 TOTAL CPU TIME =          0.0 (      0.0 MIN)
 TOTAL WALL CLOCK TIME=          0.0 SECONDS, CPU UTILIZATION IS    80.55%

          ********************
          1 ELECTRON INTEGRALS
          ********************
 ...... END OF ONE-ELECTRON INTEGRALS ......
 STEP CPU TIME =     0.00 TOTAL CPU TIME =          0.0 (      0.0 MIN)
 TOTAL WALL CLOCK TIME=          0.0 SECONDS, CPU UTILIZATION IS    78.83%

          -------------
          GUESS OPTIONS
          -------------
          GUESS =HUCKEL            NORB  =       0          NORDER=       0
          MIX   =       F          PRTMO =       F          PUNMO =       F
          TOLZ  = 1.0E-08          TOLE  = 1.0E-05
          SYMDEN=       F          PURIFY=       F

 INITIAL GUESS ORBITALS GENERATED BY HUCKEL   ROUTINE.
 HUCKEL GUESS REQUIRES      7030 WORDS.

 STATISTICS FOR GENERATION OF SYMMETRY ORBITAL -Q- MATRIX
 NUMBER OF CARTESIAN ATOMIC ORBITALS=         25
 NUMBER OF SPHERICAL CONTAMINANTS DROPPED=     1
 NUMBER OF LINEARLY DEPENDENT MOS DROPPED=     0
 TOTAL NUMBER OF MOS IN VARIATION SPACE=      24

 SYMMETRIES FOR INITIAL GUESS ORBITALS FOLLOW.   BOTH SET(S).
     5 ORBITALS ARE OCCUPIED (    1 CORE ORBITALS).
     2=A        3=A        4=A        5=A        6=A        7=A        8=A   
     9=A       10=A       11=A       12=A       13=A       14=A       15=A   
 ...... END OF INITIAL ORBITAL SELECTION ......
 STEP CPU TIME =     0.00 TOTAL CPU TIME =          0.0 (      0.0 MIN)
 TOTAL WALL CLOCK TIME=          0.0 SECONDS, CPU UTILIZATION IS    74.91%

                    ----------------------
                    AO INTEGRAL TECHNOLOGY
                    ----------------------
     S,P,L SHELL ROTATED AXIS INTEGRALS, REPROGRAMMED BY
        KAZUYA ISHIMURA (IMS) AND JOSE SIERRA (SYNSTAR).
     S,P,D,L SHELL ROTATED AXIS INTEGRALS PROGRAMMED BY
        KAZUYA ISHIMURA (INSTITUTE FOR MOLECULAR SCIENCE).
     S,P,D,F,G SHELL TO TOTAL QUARTET ANGULAR MOMENTUM SUM 5,
        ERIC PROGRAM BY GRAHAM FLETCHER (ELORET AND NASA ADVANCED
        SUPERCOMPUTING DIVISION, AMES RESEARCH CENTER).
     S,P,D,F,G,L SHELL GENERAL RYS QUADRATURE PROGRAMMED BY
        MICHEL DUPUIS (PACIFIC NORTHWEST NATIONAL LABORATORY).

          --------------------
          2 ELECTRON INTEGRALS
          --------------------

 DIRECT SCF METHOD SKIPS INTEGRAL STORAGE ON DISK.
 DIRECT TRANSFORMATION SKIPS AO INTEGRAL STORAGE ON DISK.
  ...... END OF TWO-ELECTRON INTEGRALS .....
 STEP CPU TIME =     0.01 TOTAL CPU TIME =          0.0 (      0.0 MIN)
 TOTAL WALL CLOCK TIME=          0.0 SECONDS, CPU UTILIZATION IS    79.20%

          --------------------------
                 RHF SCF CALCULATION
          --------------------------

     NUCLEAR ENERGY =         6.7588840849
     MAXIT =   30     NPUNCH=    2
     EXTRAP=T  DAMP=F  SHIFT=F  RSTRCT=F  DIIS=F  DEM=F  SOSCF=T
     DENSITY MATRIX CONV=  2.00E-07
     SOSCF WILL OPTIMIZE      95 ORBITAL ROTATIONS, SOGTOL=   0.250
     MEMORY REQUIRED FOR RHF ITERS=     50657 WORDS.

 DIRECT SCF CALCULATION, SCHWRZ=T   FDIFF=F,  DIRTHR=  0.00E+00 NITDIR=10
 SCHWARZ INEQUALITY OVERHEAD:       325 INTEGRALS, T=        0.00

                                                                                   NONZERO     BLOCKS
 ITER EX DEM     TOTAL ENERGY        E CHANGE  DENSITY CHANGE     ORB. GRAD      INTEGRALS    SKIPPED
   1  0  0      -75.5140661450   -75.5140661450   0.339435123   0.000000000          26107          0
          ---------------START SECOND ORDER SCF---------------
   2  1  0      -75.7380052963    -0.2239391513   0.176282276   0.093877526          26107          0
   3  2  0      -75.7468123534    -0.0088070570   0.114586709   0.095029976          26107          0
   4  3  0      -75.7952350462    -0.0484226928   0.017500729   0.009306210          26107          0
   5  4  0      -75.7960853516    -0.0008503054   0.010694153   0.002747786          26107          0
   6  5  0      -75.7962526274    -0.0001672758   0.003266685   0.001061081          26107          0
   7  6  0      -75.7962702168    -0.0000175894   0.000799927   0.000352221          26107          0
   8  7  0      -75.7962724810    -0.0000022641   0.000359727   0.000110058          26107          0
   9  8  0      -75.7962726964    -0.0000002155   0.000114002   0.000041544          26107          0
  10  9  0      -75.7962727183    -0.0000000219   0.000020044   0.000011113          26107          0
  11 10  0      -75.7962727192    -0.0000000009   0.000003252   0.000001597          26107          0
  12 11  0      -75.7962727192    -0.0000000000   0.000000902   0.000000338          26107          0
  13 12  0      -75.7962727192    -0.0000000000   0.000000286   0.000000100          26107          0
  14 13  0      -75.7962727192    -0.0000000000   0.000000039   0.000000023          26107          0

          -----------------
          DENSITY CONVERGED
          -----------------
     TIME TO FORM FOCK OPERATORS=       0.1 SECONDS (       0.0 SEC/ITER)
     FOCK TIME ON FIRST ITERATION=       0.0, LAST ITERATION=       0.0
     TIME TO SOLVE SCF EQUATIONS=       0.0 SECONDS (       0.0 SEC/ITER)

 FINAL RHF ENERGY IS      -75.7962727192 AFTER  14 ITERATIONS

          ------------
          EIGENVECTORS
          ------------

                      1          2          3          4          5
                  -20.6134    -1.2824    -0.6307    -0.5048    -0.4151
                     A          A          A          A          A   
    1  O  1  S    1.000678  -0.004814   0.003174   0.000000  -0.006781
    2  O  1  S    0.000418   0.464006  -0.137228   0.000000  -0.053681
    3  O  1  S   -0.002750   0.455549  -0.321852   0.000000  -0.058967
    4  O  1  X   -0.000090  -0.039238  -0.192596   0.000000   0.381336
    5  O  1  Y    0.001560   0.073411   0.490363   0.000000   0.207851
    6  O  1  Z   -0.000000  -0.000000   0.000000   0.652873   0.000000
    7  O  1  X   -0.000139   0.002435  -0.102428   0.000000   0.333896
    8  O  1  Y   -0.000489  -0.000438   0.271707   0.000000   0.183788
    9  O  1  Z   -0.000000  -0.000000   0.000000   0.483974   0.000000
   10  O  1 XX   -0.000340  -0.002346  -0.008682   0.000000   0.002090
   11  O  1 YY    0.000227   0.005122   0.019049   0.000000   0.004142
   12  O  1 ZZ    0.000113  -0.002776  -0.010367   0.000000  -0.006233
   13  O  1 XY   -0.000281  -0.004647  -0.012570   0.000000   0.010735
   14  O  1 XZ   -0.000000  -0.000000   0.000000  -0.003327   0.000000
   15  O  1 YZ   -0.000000  -0.000000   0.000000   0.015340   0.000000
   16  H  2  S   -0.000315   0.215387   0.376985   0.000000  -0.008905
   17  H  2  S    0.000620   0.013412   0.073813   0.000000   0.007042
   18  H  2  X   -0.000324   0.018685   0.019078   0.000000   0.017138
   19  H  2  Y    0.000737  -0.039731  -0.035122   0.000000   0.012359
   20  H  2  Z   -0.000000  -0.000000   0.000000   0.032843   0.000000
   21  H  3  S    0.000025   0.019822  -0.043045   0.000000   0.296813
   22  H  3  S    0.000249   0.014487  -0.050730   0.000000   0.346593
   23  H  3  X   -0.000188  -0.004237   0.006916   0.000000  -0.013952
   24  H  3  Y   -0.000021   0.000217   0.003971   0.000000   0.001928
   25  H  3  Z   -0.000000  -0.000000   0.000000   0.005528   0.000000

                      6          7          8          9         10
                   -0.0223     0.2146     0.6336     0.8311     1.1566
                     A          A          A          A          A   
    1  O  1  S    0.006470   0.042137   0.017612  -0.024824   0.065773
    2  O  1  S   -0.052752  -0.050257   0.023347  -0.135543   0.245667
    3  O  1  S   -0.180278  -0.813268  -0.143412   0.088187   0.422461
    4  O  1  X   -0.380338   0.131097   0.042033   0.133919   0.290147
    5  O  1  Y   -0.135017  -0.203271   0.056836  -0.319867  -0.612876
    6  O  1  Z   -0.000000  -0.000000  -0.000000  -0.000000   0.000000
    7  O  1  X   -0.401817   0.239572  -0.216064   0.120738  -0.611525
    8  O  1  Y   -0.142846  -0.393903  -0.016182  -0.244455   1.278310
    9  O  1  Z   -0.000000  -0.000000  -0.000000  -0.000000   0.000000
   10  O  1 XX    0.009395   0.002351  -0.008617  -0.024680  -0.012273
   11  O  1 YY   -0.007276  -0.012083  -0.000747   0.081100   0.013085
   12  O  1 ZZ   -0.002119   0.009732   0.009364  -0.056419  -0.000813
   13  O  1 XY   -0.007451   0.011622   0.000701  -0.079190  -0.004944
   14  O  1 XZ   -0.000000  -0.000000  -0.000000  -0.000000   0.000000
   15  O  1 YZ   -0.000000  -0.000000  -0.000000  -0.000000   0.000000
   16  H  2  S    0.031435   0.063692  -0.030073   1.291168  -0.686997
   17  H  2  S    0.061591   1.461349  -0.153259  -0.872035  -0.338329
   18  H  2  X   -0.019949   0.015223   0.055196  -0.126856  -0.115611
   19  H  2  Y   -0.010935  -0.028073  -0.001678   0.268348   0.313694
   20  H  2  Z   -0.000000  -0.000000  -0.000000  -0.000000   0.000000
   21  H  3  S    0.339311  -0.064476  -1.307051  -0.074684  -0.015808
   22  H  3  S    0.573302  -0.188672   1.346355   0.162312   0.136825
   23  H  3  X    0.026648  -0.005634   0.044335   0.046420   0.161052
   24  H  3  Y    0.004260   0.001379   0.003718  -0.049195   0.253679
   25  H  3  Z   -0.000000  -0.000000  -0.000000  -0.000000   0.000000

                     11         12         13         14         15
                    1.1759     1.1801     1.4611     1.4658     1.4853
                     A          A          A          A          A   
    1  O  1  S    0.000000   0.064830   0.000000  -0.257625   0.002480
    2  O  1  S    0.000000   0.151464   0.000000  -0.601890  -0.021123
    3  O  1  S    0.000000  -0.297182   0.000000   0.970258  -0.204048
    4  O  1  X    0.000000   0.733481   0.000000   0.395770  -0.117896
    5  O  1  Y    0.000000   0.410514   0.000000   0.143524   0.152853
    6  O  1  Z   -0.925206   0.000000   0.223934  -0.000000   0.000000
    7  O  1  X    0.000000  -0.635774   0.000000  -0.414956   0.174320
    8  O  1  Y    0.000000  -0.561466   0.000000   0.247450  -0.500877
    9  O  1  Z    1.001033   0.000000  -0.126698  -0.000000   0.000000
   10  O  1 XX    0.000000  -0.021534   0.000000   0.081427  -0.044197
   11  O  1 YY    0.000000   0.008242   0.000000  -0.056673   0.052961
   12  O  1 ZZ    0.000000   0.013292   0.000000  -0.024754  -0.008764
   13  O  1 XY    0.000000   0.003407   0.000000  -0.036281   0.013830
   14  O  1 XZ    0.003111   0.000000   0.033055  -0.000000   0.000000
   15  O  1 YZ   -0.002284   0.000000  -0.032123  -0.000000   0.000000
   16  H  2  S    0.000000   0.122686   0.000000  -0.201912   0.328890
   17  H  2  S    0.000000   0.130973   0.000000  -0.443368   0.068567
   18  H  2  X    0.000000   0.076973   0.000000  -0.642789   0.294546
   19  H  2  Y    0.000000  -0.053900   0.000000  -0.098748   0.027546
   20  H  2  Z    0.009032   0.000000  -0.344352  -0.000000   0.000000
   21  H  3  S    0.000000   0.156913   0.000000  -0.075860   0.038982
   22  H  3  S    0.000000   0.010927   0.000000   0.150746  -0.065388
   23  H  3  X    0.000000   0.441259   0.000000  -0.489160  -0.001360
   24  H  3  Y    0.000000  -0.023852   0.000000   0.237833   0.922484
   25  H  3  Z    0.218659   0.000000   0.915258  -0.000000   0.000000

                     16         17         18         19         20
                    1.5728     1.6180     1.9498     2.4438     2.9610
                     A          A          A          A          A   
    1  O  1  S   -0.000000  -0.474789  -0.469808   0.196134   0.000000
    2  O  1  S   -0.000000  -1.096123  -1.081140   0.508181   0.000000
    3  O  1  S   -0.000000   1.735604   1.489883   0.531031   0.000000
    4  O  1  X   -0.000000   0.165525  -0.348284  -0.339077   0.000000
    5  O  1  Y   -0.000000   0.038800  -0.031695   0.694125   0.000000
    6  O  1  Z    0.061650   0.000000  -0.000000   0.000000  -0.004640
    7  O  1  X   -0.000000  -0.756370   0.549909  -0.046535   0.000000
    8  O  1  Y   -0.000000   0.361416   0.409241   0.109389   0.000000
    9  O  1  Z   -0.497175   0.000000  -0.000000   0.000000   0.000211
   10  O  1 XX   -0.000000  -0.041865  -0.015309   0.033659   0.000000
   11  O  1 YY   -0.000000   0.043001  -0.077910  -0.115079   0.000000
   12  O  1 ZZ   -0.000000  -0.001136   0.093220   0.081419   0.000000
   13  O  1 XY   -0.000000   0.090957  -0.043068   0.110023   0.000000
   14  O  1 XZ   -0.055312   0.000000  -0.000000   0.000000   0.904486
   15  O  1 YZ    0.127876   0.000000  -0.000000   0.000000   0.426182
   16  H  2  S   -0.000000  -0.462395  -0.326627  -0.521063   0.000000
   17  H  2  S   -0.000000  -0.596446  -0.212878  -0.300985   0.000000
   18  H  2  X   -0.000000   0.490418  -0.366140  -0.562173   0.000000
   19  H  2  Y   -0.000000   0.547837  -0.054337   1.161880   0.000000
   20  H  2  Z    0.961355   0.000000  -0.000000   0.000000   0.003155
   21  H  3  S   -0.000000   0.049304   0.028437  -0.029200   0.000000
   22  H  3  S   -0.000000   0.045989  -0.312415   0.038180   0.000000
   23  H  3  X   -0.000000  -0.233585   0.753719   0.030229   0.000000
   24  H  3  Y   -0.000000  -0.149553   0.086467   0.014939   0.000000
   25  H  3  Z    0.341724   0.000000  -0.000000   0.000000  -0.021416

                     21         22         23         24
                    2.9802     3.2989     3.3112     4.0340
                     A          A          A          A   
    1  O  1  S    0.023600  -0.006781  -0.000000   0.096756
    2  O  1  S    0.053556  -0.015267  -0.000000   0.120760
    3  O  1  S   -0.057018   0.013153  -0.000000  -1.550629
    4  O  1  X    0.043496  -0.019581  -0.000000   0.179908
    5  O  1  Y    0.007833  -0.011182  -0.000000  -0.385776
    6  O  1  Z    0.000000  -0.000000  -0.011891   0.000000
    7  O  1  X   -0.084810   0.221022  -0.000000   0.455616
    8  O  1  Y   -0.005880   0.095373  -0.000000  -0.932536
    9  O  1  Z    0.000000  -0.000000   0.215178   0.000000
   10  O  1 XX   -0.723996  -0.692648  -0.000000   0.275670
   11  O  1 YY   -0.133495   0.713436  -0.000000  -0.910466
   12  O  1 ZZ    0.857491  -0.020788  -0.000000   0.634796
   13  O  1 XY   -0.375620   0.673653  -0.000000   0.847092
   14  O  1 XZ    0.000000  -0.000000  -0.450518   0.000000
   15  O  1 YZ    0.000000  -0.000000   0.954502   0.000000
   16  H  2  S    0.004534  -0.001175  -0.000000   1.633877
   17  H  2  S   -0.026127   0.009794  -0.000000   0.313336
   18  H  2  X    0.008158  -0.496433  -0.000000   0.474105
   19  H  2  Y    0.015272  -0.243391  -0.000000  -0.991163
   20  H  2  Z    0.000000  -0.000000  -0.545327   0.000000
   21  H  3  S    0.002180  -0.020417  -0.000000   0.012225
   22  H  3  S    0.066939  -0.014654  -0.000000  -0.032887
   23  H  3  X   -0.124575   0.034443  -0.000000  -0.011714
   24  H  3  Y   -0.011777  -0.013260  -0.000000   0.040732
   25  H  3  Z    0.000000  -0.000000  -0.012392   0.000000
 ...... END OF RHF CALCULATION ......
 STEP CPU TIME =     0.10 TOTAL CPU TIME =          0.1 (      0.0 MIN)
 TOTAL WALL CLOCK TIME=          0.1 SECONDS, CPU UTILIZATION IS    94.10%

     ----------------------------------------------------------------
     PROPERTY VALUES FOR THE RHF   SELF-CONSISTENT FIELD WAVEFUNCTION
     ----------------------------------------------------------------

          -----------------
          ENERGY COMPONENTS
          -----------------

         WAVEFUNCTION NORMALIZATION =       1.0000000000

                ONE ELECTRON ENERGY =    -118.2175634133
                TWO ELECTRON ENERGY =      35.6624066092
           NUCLEAR REPULSION ENERGY =       6.7588840849
                                      ------------------
                       TOTAL ENERGY =     -75.7962727192

 ELECTRON-ELECTRON POTENTIAL ENERGY =      35.6624066092
  NUCLEUS-ELECTRON POTENTIAL ENERGY =    -193.6520528678
   NUCLEUS-NUCLEUS POTENTIAL ENERGY =       6.7588840849
                                      ------------------
             TOTAL POTENTIAL ENERGY =    -151.2307621737
               TOTAL KINETIC ENERGY =      75.4344894545
                 VIRIAL RATIO (V/T) =       2.0047959928

  ...... PI ENERGY ANALYSIS ......

 ENERGY ANALYSIS:
            FOCK ENERGY=    -46.8927500206
          BARE H ENERGY=   -118.2175634133
     ELECTRONIC ENERGY =    -82.5551567170
         KINETIC ENERGY=     75.4344894545
          N-N REPULSION=      6.7588840849
           TOTAL ENERGY=    -75.7962726320
        SIGMA PART(1+2)=    -75.0903797965
               (K,V1,2)=     70.6791908777   -174.9768057783     29.2072351041
           PI PART(1+2)=     -7.4647769205
               (K,V1,2)=      4.7552985767    -18.6752470895      6.4551715923
  SIGMA SKELETON, ERROR=    -68.3314957115      0.0000000000
             MIXED PART= 0.00000E+00 0.00000E+00 0.00000E+00 0.00000E+00
 ...... END OF PI ENERGY ANALYSIS ......

          ---------------------------------------
          MULLIKEN AND LOWDIN POPULATION ANALYSES
          ---------------------------------------

     ATOMIC MULLIKEN POPULATION IN EACH MOLECULAR ORBITAL

                      1          2          3          4          5

                  2.000000   2.000000   2.000000   2.000000   2.000000

    1             2.000115   1.675100   1.512040   1.976387   1.159200
    2            -0.000125   0.315752   0.462991   0.023303   0.012731
    3             0.000009   0.009148   0.024969   0.000310   0.828069

               ----- POPULATIONS IN EACH AO -----
                             MULLIKEN      LOWDIN
              1  O  1  S      2.00133     1.90694
              2  O  1  S      0.87680     0.64127
              3  O  1  S      0.95602     0.58314
              4  O  1  X      0.56577     0.53357
              5  O  1  Y      0.87552     0.82400
              6  O  1  Z      1.17766     1.14013
              7  O  1  X      0.53811     0.57128
              8  O  1  Y      0.52605     0.63589
              9  O  1  Z      0.79792     0.79535
             10  O  1 XX      0.00153     0.19765
             11  O  1 YY      0.00254     0.20238
             12  O  1 ZZ      0.00280     0.19977
             13  O  1 XY      0.00005     0.00517
             14  O  1 XZ      0.00076     0.00000
             15  O  1 YZ      0.00000     0.00022
             16  H  2  S      0.68142     0.54927
             17  H  2  S      0.05191     0.16759
             18  H  2  X      0.01755     0.04272
             19  H  2  Y      0.04046     0.07415
             20  H  2  Z      0.02330     0.06383
             21  H  3  S      0.36957     0.37164
             22  H  3  S      0.48897     0.48735
             23  H  3  X      0.00348     0.00593
             24  H  3  Y      0.00019     0.00029
             25  H  3  Z      0.00031     0.00047

          ----- MULLIKEN ATOMIC OVERLAP POPULATIONS -----
          (OFF-DIAGONAL ELEMENTS NEED TO BE MULTIPLIED BY 2)

             1           2           3

    1    7.8368388
    2    0.3356278   0.4826068
    3    0.1503767  -0.0035834   0.7157121

          TOTAL MULLIKEN AND LOWDIN ATOMIC POPULATIONS
       ATOM         MULL.POP.    CHARGE          LOW.POP.     CHARGE
    1 O             8.322843   -0.322843         8.236753   -0.236753
    2 H             0.814651    0.185349         0.897564    0.102436
    3 H             0.862505    0.137495         0.865682    0.134318

          MULLIKEN SPHERICAL HARMONIC POPULATIONS
       ATOM           S       P       D      F      G      H      I    TOTAL
    1 O             3.83    4.48    0.01   0.00   0.00   0.00   0.00    8.32
    2 H             0.73    0.08    0.00   0.00   0.00   0.00   0.00    0.81
    3 H             0.86    0.00    0.00   0.00   0.00   0.00   0.00    0.86

          -------------------------------
          BOND ORDER AND VALENCE ANALYSIS     BOND ORDER THRESHOLD=0.050
          -------------------------------

                   BOND                       BOND                       BOND
  ATOM PAIR DIST  ORDER      ATOM PAIR DIST  ORDER      ATOM PAIR DIST  ORDER
    1   2  0.958  1.006        1   3  1.993  0.969

                       TOTAL       BONDED        FREE
      ATOM            VALENCE     VALENCE     VALENCE
    1 O                 1.975       1.975      -0.000
    2 H                 1.017       1.017       0.000
    3 H                 0.981       0.981       0.000

          ---------------------
          ELECTROSTATIC MOMENTS
          ---------------------

 POINT   1           X           Y           Z (BOHR)    CHARGE
                 0.052893    0.000034    0.000000       -0.00 (A.U.)
         DX          DY          DZ         /D/  (DEBYE)
     0.807106    1.794355    0.000000    1.967519
 ...... END OF PROPERTY EVALUATION ......
 STEP CPU TIME =     0.00 TOTAL CPU TIME =          0.1 (      0.0 MIN)
 TOTAL WALL CLOCK TIME=          0.1 SECONDS, CPU UTILIZATION IS    94.20%
               580000  WORDS OF DYNAMIC MEMORY USED
 EXECUTION OF GAMESS TERMINATED NORMALLY 07:36:36 27-JUL-2025    
 DDI: 263640 bytes (0.3 MB / 0 MWords) used by master data server.

 ----------------------------------------
 CPU timing information for all processes
 ========================================
 0: 0.111 + 0.24 = 0.136
 ----------------------------------------
 ddikick.x: exited gracefully.
----- accounting info -----
Files used on the parent node omen were:
-rw-r--r-- 1 paulo paulo   10618 Jul 27 07:36 /home/paulo/gamess/restart/H2O_RHF.dat
-rw-r--r-- 1 paulo paulo     388 Jul 27 07:36 /home/paulo/gamess/restart/H2O_RHF.F05
-rw-r--r-- 1 paulo paulo 1537840 Jul 27 07:36 /home/paulo/gamess/restart/H2O_RHF.F10
-rw-r--r-- 1 paulo paulo  130880 Jul 27 07:36 /home/paulo/gamess/restart/H2O_RHF.F26R
-rw-r--r-- 1 paulo paulo       0 Jul 27 07:36 /home/paulo/gamess/restart/H2O_RHF.F27R
Sun Jul 27 07:36:38 AM WEST 2025
0.159u 0.101s 0:01.45 17.2%	0+0k 280+128io 0pf+0w
