1 : H2O_CISDTQ5678.inp
2 : 00
3 : 1
----- GAMESS execution script 'rungms' -----
This job is running on host dodecaedro
under operating system Linux at Sun Jul 27 08:09:01 AM WEST 2025
Available scratch disk space (Kbyte units) at beginning of the job is
Filesystem      1K-blocks       Used  Available Use% Mounted on
/dev/sdb1      5813177436 4499098772 1021036204  82% /home
GAMESS temporary binary files will be written to /home/paulo/gamess/restart
GAMESS supplementary output files will be written to /home/paulo/gamess/restart
Copying input file /home/paulo/WORK/H2O-CCD/non-eq/H2O_CISDTQ5678.inp to your run's scratch directory...
removed '/home/paulo/gamess/restart/H2O_CISDTQ5678.dat'

 Distributed Data Interface kickoff program.
 Initiating 1 compute processes on 1 nodes to run the following command:
 /home/paulo/WORK/BUILD/GAMESS/Nov2023/gamess/gamess.00.x H2O_CISDTQ5678 

          *******************************************************
          *                                                     *
          *          GAMESS VERSION = 30 SEP 2023 (R2)          *
          *                                                     *
          *              doi.org/10.1063/5.0005188              *
          *                                                     *
          **************** 64 BIT LINUX VERSION *****************

  GAMESS HAS BEEN MADE POSSIBLE WITH IMPORTANT CONTRIBUTIONS FROM
  THE FOLLOWING INDIVIDUALS (IN ALPHABETICAL ORDER):

     IVANA ADAMOVIC, CHRISTINE AIKENS, TOMOKO AKAMA,
     MELISA ALKAN, YURI ALEXEEV, YURIKO AOKI, POOJA ARORA,
     TOSHIO ASADA, ANDREY ASADCHEV, KIM K. BALDRIDGE,
     PRADIPTA BANDYOPADHYAY, TAYLOR A. BARNES, MARIA BARYSZ,
     ROB BELL, JONATHAN BENTZ, COLLEEN BERTONI,
     JERRY A. BOATZ, BRETT BODE, KURT BRORSEN, KURT R. BRORSEN,
     LAIMUTIS BYTAUTAS, CALEB CARLIN, LAURA CARRINGTON,
     GALINA CHABAN, BENOIT CHAMPAGNE, WEI CHEN, MAHITO CHIBA,
     DAN CHIPMAN, CHEOL HO CHOI, TANNER CULPITT,
     DIPAYAN DATTA, PAUL DAY, ALBERT DEFUSCO,
     NUWAN DESILVA, J. EMILIANO DEUSTUA,
     TIM DUDLEY, MICHEL DUPUIS, STEVEN T. ELBERT,
     DMITRI FEDOROV, KATHERINE FERRERAS, MICHAEL FILATOV,
     ALEX FINDLATER,GRAHAM FLETCHER, MARK FREITAG,
     CHRISTIAN FRIEDL, DAVID GARMER, 
     IGOR S. GERASIMOV, KURT GLAESEMANN,
     MARK S. GORDON, JEFFREY R. GOUR, FENG LONG GU,
     EMILIE B. GUIDEZ, ANASTASIA GUNINA, SHARON HAMMES-SCHIFFER,
     MASATAKE HARUTA, KIMIHIKO HIRAO, YASUHIRO IKABATA,
     TZVETELIN IORDANOV, STEPHAN IRLE, KAZUYA ISHIMURA,
     JOE IVANIC, FRANK JENSEN, JAN H. JENSEN, VISVALDAS KAIRYS,
     MUNEAKI KAMIYA, MICHIO KATOUDA, NAOAKI KAWAKAMI, DAN KEMP,
     BERNARD KIRTMAN, KAZUO KITAURA, MARIUSZ KLOBUKOWSKI,
     MASATO KOBAYASHI, KONSTANTIN KOMAROV, PRAKASHAN KORAMBATH,
     JACEK KORCHOWIEC, SHIRO KOSEKI, KAROL KOWALSKI,
     JIMMY KROMANN, STANISLAW A. KUCHARSKI, HENRY KURTZ,
     SAROM SOK LEANG, SEUNGHOON LEE, HUI LI, SHUHUA LI, WEI LI,
     JESSE J. LUTZ, ALEKSANDR O. LYKHIN,
     ILIAS MAGOULAS, MARCIN MAKOWSKI,
     JOANI MATO, NIKITA MATSUNAGA, BENEDETTA MENNUCCI,
     GRANT MERRILL, NORIYUKI MINEZAWA, VLADIMIR MIRONOV,
     EISAKU MIYOSHI, JOHN A. MONTGOMERY JR., HIROTOSHI MORI,
     JONATHAN MULLIN, MONIKA MUSIAL, SHIGERU NAGASE,
     TAKESHI NAGATA, HIROMI NAKAI, TAKAHITO NAKAJIMA,
     YUYA NAKAJIMA, HARUYUKI NAKANO, HIROYA NAKATA, SEAN NEDD,
     HEATHER NETZLOFF, KIET A. NGUYEN, YOSHIO NISHIMOTO,
     BOSILJKA NJEGIC, RYAN OLSON, MIKE PAK, ROBERTO PEVERATI,
     BUU PHAM, PIOTR PIECUCH, ANNA POMOGAEVA, DAVID POOLE,
     SPENCER PRUITT, OLIVIER QUINET, LUKE ROSKOP,
     KLAUS RUEDENBERG, ANDREW SAND, TOSAPORN SATTASATHUCHANA,
     NOZOMI SAWADA, MICHAEL W. SCHMIDT, PATRICK E. SCHNEIDER,
     JUNJI SEINO, PRACHI SHARMA, JUN SHEN, JIM SHOEMAKER,
     GEORGE SCHOENDORFF, YINAN SHU, DEJUN SI, JONATHAN SKONE,
     LYUDMILA SLIPCHENKO, TONY SMITH, JIE SONG, MARK SPACKMAN,
     CASPER STEINMANN, WALT STEVENS, PEIFENG SU, SHUJUN SU,
     CHET SWALINA, CHINAMI TAKASHIMA, TETSUYA TAKETSUGU,
     ZHEN TAO, NANDUN THELLAMUREGE, SEIKEN TOKURA,
     JACOPO TOMASI, TSUGUKI TOUMA, TAKAO TSUNEDA, HIROAKI UMEDA,
     JORGE LUIS GALVEZ VALLEJO, YALI WANG, SIMON WEBB,
     AARON WEST, THERESA L. WINDUS, MARTA WLOCH,
     PENG XU, KIYOSHI YAGI, SUSUMU YANAGISAWA, YANG YANG,
     SOOHAENG YOO, TAKESHI YOSHIKAWA, FEDERICO ZAHARIEV,
     TOBY ZENG

  WHO ARE SUPPORTED BY THEIR INSTITUTION/UNIVERSITY/COMPANY/GROUP
  (IN ALPHABETICAL ORDER):

     EP ANALYTICS,
     FACULTES UNIVERSITAIRES NOTRE-DAME DE LA PAIX,
     INSTITUTE FOR MOLECULAR SCIENCE, IOWA STATE UNIVERSITY,
     JACKSON STATE UNIVERSITY, JOHANNES KEPLER UNIVERSITY LINZ,
     KYUNGPOOK NATIONAL UNIVERSITY
     KYUSHU UNIVERSITY, MICHIGAN STATE UNIVERSITY,
     MIE UNIVERSITY, THE MOLECULAR SCIENCES SOFTWARE INSTITUTE,
     MOSCOW STATE UNIVERSITY,
     N. COPERNICUS UNIVERSITY, NAGOYA UNIVERSITY,
     NANJING UNIVERSITY, NAT. INST. OF ADVANCED INDUSTRIAL
     SCIENCE AND TECHNOLOGY, NATIONAL INST. OF STANDARDS AND
     TECHNOLOGY, NESMEYANOV INSTITUTE OF ORGANOELEMENT COMPOUNDS
     OF RUSSIAN ACADEMY OF SCIENCES, OSAKA PREFECTURE UNIVERSITY,
     PENNSYLVANIA STATE UNIVERSITY, TOKYO INSTITUTE OF TECHNOLOGY,
     UNIVERSITY OF AARHUS, UNIVERSITY OF ALBERTA,
     UNIVERSITY OF CALIFORNIA AT SANTA BARBARA,
     UNIVERSITY OF COPENHAGEN, UNIVERSITY OF IOWA,
     UNIVERSITY OF MEMPHIS, UNIVERSITY OF MINNESOTA,
     UNIVERSITY OF NEBRASKA, UNIVERSITY OF NEW ENGLAND,
     UNIVERSITY OF NOTRE DAME, UNIVERSITY OF PISA,
     UNIVERSITY OF SILESIA, UNIVERSITY OF TOKYO,
     UNIVERSITY OF ZURICH, WASEDA UNIVERSITY,
     YALE UNIVERSITY

  GAMESS SOFTWARE MANAGEMENT TEAM FOR THIS RELEASE:
     MARK S. GORDON (TEAM LEAD),
     BRETT BODE (SENIOR ADVISOR),
     GIUSEPPE BARCA,
     COLLEEN BERTONI,
     KRISTOPHER KEIPERT (ADVISOR),
     SAROM S. LEANG (DEVELOPMENT LEAD),
     BUU PHAM,
     JACKSON HAYES (WEBSITE ADMINISTRATOR),
     PENG XU

 EXECUTION OF GAMESS BEGUN 08:09:01 27-JUL-2025    

            ECHO OF THE FIRST FEW INPUT CARDS -
 INPUT CARD>!   File created by MacMolPlt 7.7.3                                             
 INPUT CARD> $CONTRL SCFTYP=RHF RUNTYP=ENERGY EXETYP=RUN CITYP=ALDET MAXIT=30               
 INPUT CARD>         MULT=1 ISPHER=1                                                        
 INPUT CARD> $END                                                                           
 INPUT CARD> $SYSTEM TIMLIM=525600 MEMORY=1755360000 MEMDDI=3750 $END                       
 INPUT CARD> $BASIS GBASIS=CCD $END                                                         
 INPUT CARD> $GUESS GUESS=MOREAD NORB=5 $END                                                
 INPUT CARD> $CIDET NCORE=1 NACT=23 NELS=8 $END                                             
 INPUT CARD> $SCF DIRSCF=.TRUE. $END                                                        
 INPUT CARD> $DATA                                                                          
 INPUT CARD>Title                                                                           
 INPUT CARD>C1                                                                              
 INPUT CARD>O     8.0    -0.05922    -0.06452     0.00000                                   
 INPUT CARD>H     1.0    -0.47260     0.79970    -0.00000                                   
 INPUT CARD>H     1.0     1.91266     0.22460     0.00000                                   
 INPUT CARD> $END                                                                           
 INPUT CARD> $VEC                                                                           
 INPUT CARD> 1  1 1.00067794E+00 4.18000011E-04-2.74999999E-03-9.00000014E-05 1.56000000E-03
 INPUT CARD> 1  2-0.00000000E+00-1.38999996E-04-4.88999998E-04-0.00000000E+00-3.39999999E-04
 INPUT CARD> 1  3 2.26999997E-04 1.13000002E-04-2.80999986E-04-0.00000000E+00-0.00000000E+00
 INPUT CARD> 1  4-3.15000012E-04 6.20000006E-04-3.23999993E-04 7.37000024E-04-0.00000000E+00
 INPUT CARD> 1  5 2.49999994E-05 2.49000004E-04-1.88000005E-04-2.09999998E-05-0.00000000E+00
 INPUT CARD> 2  1-4.81399987E-03 4.64006007E-01 4.55549002E-01-3.92379984E-02 7.34110028E-02
 INPUT CARD> 2  2-0.00000000E+00 2.43499991E-03-4.37999988E-04-0.00000000E+00-2.34599994E-03
 INPUT CARD> 2  3 5.12199989E-03-2.77599995E-03-4.64700023E-03-0.00000000E+00-0.00000000E+00
 INPUT CARD> 2  4 2.15387002E-01 1.34119997E-02 1.86850000E-02-3.97309996E-02-0.00000000E+00
 INPUT CARD> 2  5 1.98219996E-02 1.44870002E-02-4.23699990E-03 2.16999993E-04-0.00000000E+00
 INPUT CARD> 3  1 3.17399995E-03-1.37227997E-01-3.21851999E-01-1.92596003E-01 4.90363002E-01
 INPUT CARD> 3  2 0.00000000E+00-1.02427997E-01 2.71706998E-01 0.00000000E+00-8.68200045E-03
 INPUT CARD> 3  3 1.90490000E-02-1.03669995E-02-1.25700003E-02 0.00000000E+00 0.00000000E+00
 INPUT CARD> 3  4 3.76985013E-01 7.38129988E-02 1.90779995E-02-3.51219997E-02 0.00000000E+00
 INPUT CARD> 3  5-4.30449992E-02-5.07300012E-02 6.91600004E-03 3.97100020E-03 0.00000000E+00
 INPUT CARD> 4  1 0.00000000E+00 0.00000000E+00 0.00000000E+00 0.00000000E+00 0.00000000E+00
 INPUT CARD> 4  2 6.52872980E-01 0.00000000E+00 0.00000000E+00 4.83974010E-01 0.00000000E+00
 INPUT CARD> 4  3 0.00000000E+00 0.00000000E+00 0.00000000E+00-3.32699995E-03 1.53400004E-02
 INPUT CARD> 4  4 0.00000000E+00 0.00000000E+00 0.00000000E+00 0.00000000E+00 3.28430012E-02
 INPUT CARD> 4  5 0.00000000E+00 0.00000000E+00 0.00000000E+00 0.00000000E+00 5.52800018E-03
 INPUT CARD> 5  1-6.78100018E-03-5.36810011E-02-5.89670017E-02 3.81336004E-01 2.07850993E-01
 INPUT CARD> 5  2 0.00000000E+00 3.33896011E-01 1.83788002E-01 0.00000000E+00 2.09000008E-03
 INPUT CARD> 5  3 4.14199987E-03-6.23300020E-03 1.07349996E-02 0.00000000E+00 0.00000000E+00
 INPUT CARD> 5  4-8.90500005E-03 7.04200007E-03 1.71380006E-02 1.23589998E-02 0.00000000E+00
 INPUT CARD> 5  5 2.96813011E-01 3.46592993E-01-1.39520001E-02 1.92800001E-03 0.00000000E+00
 INPUT CARD> $END                                                                           
 INPUT CARD>                                                                                
   1755360000 WORDS OF MEMORY AVAILABLE

     BASIS OPTIONS
     -------------
     GBASIS=CCD          IGAUSS=       0      POLAR=NONE    
     NDFUNC=       0     NFFUNC=       0     DIFFSP=       F
     NPFUNC=       0      DIFFS=       F     BASNAM=        


     RUN TITLE
     ---------
 Title                                                                           

 THE POINT GROUP OF THE MOLECULE IS C1      
 THE ORDER OF THE PRINCIPAL AXIS IS     0

 ATOM      ATOMIC                      COORDINATES (BOHR)
           CHARGE         X                   Y                   Z
 O           8.0    -0.1119095730       -0.1219251207        0.0000000000
 H           1.0    -0.8930845018        1.5112138724       -0.0000000000
 H           1.0     3.6144033077        0.4244324568        0.0000000000

          INTERNUCLEAR DISTANCES (ANGS.)
          ------------------------------

                1 O          2 H          3 H     

   1 O       0.0000000    0.9579975 *  1.9929629 *
   2 H       0.9579975 *  0.0000000    2.4536107 *
   3 H       1.9929629 *  2.4536107 *  0.0000000  

  * ... LESS THAN  3.000


     ATOMIC BASIS SET
     ----------------
 THE CONTRACTED PRIMITIVE FUNCTIONS HAVE BEEN UNNORMALIZED
 THE CONTRACTED BASIS FUNCTIONS ARE NOW NORMALIZED TO UNITY

  SHELL TYPE  PRIMITIVE        EXPONENT          CONTRACTION COEFFICIENT(S)

 O         

      1   S       1         11720.0000000    0.000709645947
      1   S       2          1759.0000000    0.005467272292
      1   S       3           400.8000000    0.027823118610
      1   S       4           113.7000000    0.104747739711
      1   S       5            37.0300000    0.282920846357
      1   S       6            13.2700000    0.448495238698
      1   S       7             5.0250000    0.270816885213
      1   S       8             1.0130000    0.015450291607

      2   S       9         11720.0000000   -0.000314443412
      2   S      10          1759.0000000   -0.002482137681
      2   S      11           400.8000000   -0.012316355382
      2   S      12           113.7000000   -0.050538917344
      2   S      13            37.0300000   -0.139384903316
      2   S      14            13.2700000   -0.325077494818
      2   S      15             5.0250000   -0.229848307588
      2   S      16             1.0130000    1.095379346788

      3   S      17             0.3023000    1.000000000000

      4   P      18            17.7000000    0.062679166282
      4   P      19             3.8540000    0.333536565879
      4   P      20             1.0460000    0.741239641640

      5   P      21             0.2753000    1.000000000000

      6   D      22             1.1850000    1.000000000000

 H         

      7   S      23            13.0100000    0.033498726390
      7   S      24             1.9620000    0.234800801174
      7   S      25             0.4446000    0.813682957883

      8   S      26             0.1220000    1.000000000000

      9   P      27             0.7270000    1.000000000000

 H         

     10   S      28            13.0100000    0.033498726390
     10   S      29             1.9620000    0.234800801174
     10   S      30             0.4446000    0.813682957883

     11   S      31             0.1220000    1.000000000000

     12   P      32             0.7270000    1.000000000000

 TOTAL NUMBER OF BASIS SET SHELLS             =   12
 NUMBER OF CARTESIAN GAUSSIAN BASIS FUNCTIONS =   25
 NOTE: THIS RUN WILL RESTRICT THE MO VARIATION SPACE TO SPHERICAL HARMONICS.
 THE NUMBER OF ORBITALS KEPT IN THE VARIATIONAL SPACE WILL BE PRINTED LATER.
 NUMBER OF ELECTRONS                          =   10
 CHARGE OF MOLECULE                           =    0
 SPIN MULTIPLICITY                            =    1
 NUMBER OF OCCUPIED ORBITALS (ALPHA)          =    5
 NUMBER OF OCCUPIED ORBITALS (BETA )          =    5
 TOTAL NUMBER OF ATOMS                        =    3
 THE NUCLEAR REPULSION ENERGY IS        6.7588840849

     $CONTRL OPTIONS
     ---------------
 SCFTYP=RHF          RUNTYP=ENERGY       EXETYP=RUN     
 MPLEVL=       0     CITYP =ALDET        CCTYP =NONE         VBTYP =NONE    
 DFTTYP=NONE         TDDFT =NONE    
 MULT  =       1     ICHARG=       0     NZVAR =       0     COORD =UNIQUE  
 PP    =NONE         RELWFN=NONE         LOCAL =NONE         NUMGRD=       F
 ISPHER=       1     NOSYM =       0     MAXIT =      30     UNITS =ANGS    
 PLTORB=       F     MOLPLT=       F     AIMPAC=       F     FRIEND=        
 NPRINT=       7     IREST =       0     GEOM  =INPUT   
 NORMF =       0     NORMP =       0     ITOL  =      20     ICUT  =       9
 INTTYP=BEST         GRDTYP=BEST         QMTTOL= 1.0E-06

     $SYSTEM OPTIONS
     ---------------
  REPLICATED MEMORY=  1755360000 WORDS (ON EVERY NODE).
 DISTRIBUTED MEMDDI=        3750 MILLION WORDS IN AGGREGATE,
 MEMDDI DISTRIBUTED OVER   1 PROCESSORS IS  3750000000 WORDS/PROCESSOR.
 TOTAL MEMORY REQUESTED ON EACH PROCESSOR=  5505360000 WORDS.
 TIMLIM=      525600.00 MINUTES, OR     365.0 DAYS.
 PARALL= F  BALTYP=  DLB     KDIAG=    0  COREFL= F
 MXSEQ2=     300 MXSEQ3=     150  mem10=         0  mem22=         0

          ----------------
          PROPERTIES INPUT
          ----------------

     MOMENTS            FIELD           POTENTIAL          DENSITY
 IEMOM =       1   IEFLD =       0   IEPOT =       0   IEDEN =       0
 WHERE =COMASS     WHERE =NUCLEI     WHERE =NUCLEI     WHERE =NUCLEI  
 OUTPUT=BOTH       OUTPUT=BOTH       OUTPUT=BOTH       OUTPUT=BOTH    
 IEMINT=       0   IEFINT=       0                     IEDINT=       0
                                                       MORB  =       0
          EXTRAPOLATION IN EFFECT
          SOSCF IN EFFECT
 ORBITAL PRINTING OPTION: NPREO=     1    25     2     1

     -------------------------------
     INTEGRAL TRANSFORMATION OPTIONS
     -------------------------------
     NWORD  =            0
     CUTTRF = 1.0E-09     MPTRAN =       0
     DIRTRF =       T     AOINTS =DUP     

          ----------------------
          INTEGRAL INPUT OPTIONS
          ----------------------
 NOPK  =       1 NORDER=       0 SCHWRZ=       T

     ------------------------------------------
     THE POINT GROUP IS C1 , NAXIS= 0, ORDER= 1
     ------------------------------------------

 -- VARIATIONAL SPACE WILL BE RESTRICTED TO PURE SPHERICAL HARMONICS ONLY --
 AFTER EXCLUDING CONTAMINANT COMBINATIONS FROM THE CARTESIAN GAUSSIAN BASIS
 SET, THE NUMBER OF SPHERICAL HARMONICS KEPT IN THE VARIATION SPACE IS   24

     DIMENSIONS OF THE SYMMETRY SUBSPACES ARE
 A   =   24

 ..... DONE SETTING UP THE RUN .....
 STEP CPU TIME =     0.01 TOTAL CPU TIME =          0.0 (      0.0 MIN)
 TOTAL WALL CLOCK TIME=          0.0 SECONDS, CPU UTILIZATION IS    99.27%

          ********************
          1 ELECTRON INTEGRALS
          ********************
 ...... END OF ONE-ELECTRON INTEGRALS ......
 STEP CPU TIME =     0.00 TOTAL CPU TIME =          0.0 (      0.0 MIN)
 TOTAL WALL CLOCK TIME=          0.0 SECONDS, CPU UTILIZATION IS    99.28%

          -------------
          GUESS OPTIONS
          -------------
          GUESS =MOREAD            NORB  =       5          NORDER=       0
          MIX   =       F          PRTMO =       F          PUNMO =       F
          TOLZ  = 1.0E-08          TOLE  = 1.0E-05
          SYMDEN=       F          PURIFY=       F

 INITIAL GUESS ORBITALS GENERATED BY MOREAD   ROUTINE.

 STATISTICS FOR GENERATION OF SYMMETRY ORBITAL -Q- MATRIX
 NUMBER OF CARTESIAN ATOMIC ORBITALS=         25
 NUMBER OF SPHERICAL CONTAMINANTS DROPPED=     1
 NUMBER OF LINEARLY DEPENDENT MOS DROPPED=     0
 TOTAL NUMBER OF MOS IN VARIATION SPACE=      24

 SYMMETRIES FOR INITIAL GUESS ORBITALS FOLLOW.   BOTH SET(S).
     5 ORBITALS ARE OCCUPIED (    1 CORE ORBITALS).
     1=A        2=A        3=A        4=A        5=A        6=A        7=A   
     8=A        9=A       10=A       11=A       12=A       13=A       14=A   
    15=A       16=A       17=A       18=A       19=A       20=A       21=A   
    22=A       23=A       24=A   
 ...... END OF INITIAL ORBITAL SELECTION ......
 STEP CPU TIME =     0.00 TOTAL CPU TIME =          0.0 (      0.0 MIN)
 TOTAL WALL CLOCK TIME=          0.0 SECONDS, CPU UTILIZATION IS    99.29%

                    ----------------------
                    AO INTEGRAL TECHNOLOGY
                    ----------------------
     S,P,L SHELL ROTATED AXIS INTEGRALS, REPROGRAMMED BY
        KAZUYA ISHIMURA (IMS) AND JOSE SIERRA (SYNSTAR).
     S,P,D,L SHELL ROTATED AXIS INTEGRALS PROGRAMMED BY
        KAZUYA ISHIMURA (INSTITUTE FOR MOLECULAR SCIENCE).
     S,P,D,F,G SHELL TO TOTAL QUARTET ANGULAR MOMENTUM SUM 5,
        ERIC PROGRAM BY GRAHAM FLETCHER (ELORET AND NASA ADVANCED
        SUPERCOMPUTING DIVISION, AMES RESEARCH CENTER).
     S,P,D,F,G,L SHELL GENERAL RYS QUADRATURE PROGRAMMED BY
        MICHEL DUPUIS (PACIFIC NORTHWEST NATIONAL LABORATORY).

          --------------------
          2 ELECTRON INTEGRALS
          --------------------

 DIRECT SCF METHOD SKIPS INTEGRAL STORAGE ON DISK.
 DIRECT TRANSFORMATION SKIPS AO INTEGRAL STORAGE ON DISK.
  ...... END OF TWO-ELECTRON INTEGRALS .....
 STEP CPU TIME =     0.00 TOTAL CPU TIME =          0.0 (      0.0 MIN)
 TOTAL WALL CLOCK TIME=          0.0 SECONDS, CPU UTILIZATION IS    99.43%

          --------------------------
                 RHF SCF CALCULATION
          --------------------------

     NUCLEAR ENERGY =         6.7588840849
     MAXIT =   30     NPUNCH=    2
     EXTRAP=T  DAMP=F  SHIFT=F  RSTRCT=F  DIIS=F  DEM=F  SOSCF=T
     DENSITY MATRIX CONV=  2.00E-06
     SOSCF WILL OPTIMIZE      95 ORBITAL ROTATIONS, SOGTOL=   0.250
     MEMORY REQUIRED FOR RHF ITERS=     50657 WORDS.

 DIRECT SCF CALCULATION, SCHWRZ=T   FDIFF=T,  DIRTHR=  0.00E+00 NITDIR=10
 SCHWARZ INEQUALITY OVERHEAD:       325 INTEGRALS, T=        0.00

                                                                                   NONZERO     BLOCKS
 ITER EX DEM     TOTAL ENERGY        E CHANGE  DENSITY CHANGE     ORB. GRAD      INTEGRALS    SKIPPED
   1  0  0      -75.7962727192   -75.7962727192   0.000001025   0.000000000          26107          0
          ---------------START SECOND ORDER SCF---------------
   2  1  0      -75.7962727192    -0.0000000000   0.000000962   0.000000453          25760         44
   3  2  0      -75.7962727192    -0.0000000000   0.000000368   0.000000467          24727        170

          -----------------
          DENSITY CONVERGED
          -----------------
     TIME TO FORM FOCK OPERATORS=       0.0 SECONDS (       0.0 SEC/ITER)
     FOCK TIME ON FIRST ITERATION=       0.0, LAST ITERATION=       0.0
     TIME TO SOLVE SCF EQUATIONS=       0.0 SECONDS (       0.0 SEC/ITER)

 FINAL RHF ENERGY IS      -75.7962727192 AFTER   3 ITERATIONS

          ------------
          EIGENVECTORS
          ------------

                      1          2          3          4          5
                  -20.6134    -1.2824    -0.6307    -0.5048    -0.4151
                     A          A          A          A          A   
    1  O  1  S    1.000678  -0.004814   0.003174  -0.000000  -0.006781
    2  O  1  S    0.000418   0.464006  -0.137228  -0.000000  -0.053681
    3  O  1  S   -0.002750   0.455549  -0.321852  -0.000000  -0.058967
    4  O  1  X   -0.000090  -0.039238  -0.192596  -0.000000   0.381335
    5  O  1  Y    0.001560   0.073411   0.490363  -0.000000   0.207851
    6  O  1  Z   -0.000000  -0.000000   0.000000   0.652872   0.000000
    7  O  1  X   -0.000139   0.002435  -0.102428  -0.000000   0.333896
    8  O  1  Y   -0.000489  -0.000438   0.271707  -0.000000   0.183788
    9  O  1  Z   -0.000000  -0.000000   0.000000   0.483974   0.000000
   10  O  1 XX   -0.000340  -0.002346  -0.008682  -0.000000   0.002090
   11  O  1 YY    0.000227   0.005122   0.019049  -0.000000   0.004142
   12  O  1 ZZ    0.000113  -0.002776  -0.010367  -0.000000  -0.006233
   13  O  1 XY   -0.000281  -0.004647  -0.012570  -0.000000   0.010735
   14  O  1 XZ   -0.000000  -0.000000   0.000000  -0.003327   0.000000
   15  O  1 YZ   -0.000000  -0.000000   0.000000   0.015340   0.000000
   16  H  2  S   -0.000315   0.215387   0.376985  -0.000000  -0.008905
   17  H  2  S    0.000620   0.013412   0.073813  -0.000000   0.007042
   18  H  2  X   -0.000324   0.018685   0.019078  -0.000000   0.017138
   19  H  2  Y    0.000737  -0.039731  -0.035122  -0.000000   0.012359
   20  H  2  Z   -0.000000  -0.000000   0.000000   0.032843   0.000000
   21  H  3  S    0.000025   0.019822  -0.043045  -0.000000   0.296813
   22  H  3  S    0.000249   0.014487  -0.050730  -0.000000   0.346593
   23  H  3  X   -0.000188  -0.004237   0.006916  -0.000000  -0.013952
   24  H  3  Y   -0.000021   0.000217   0.003971  -0.000000   0.001928
   25  H  3  Z   -0.000000  -0.000000   0.000000   0.005528   0.000000

                      6          7          8          9         10
                   -0.0223     0.2146     0.6336     0.8311     1.1566
                     A          A          A          A          A   
    1  O  1  S    0.006470   0.042137   0.017612  -0.024824   0.065773
    2  O  1  S   -0.052752  -0.050257   0.023347  -0.135543   0.245668
    3  O  1  S   -0.180278  -0.813268  -0.143412   0.088186   0.422461
    4  O  1  X   -0.380338   0.131097   0.042033   0.133919   0.290148
    5  O  1  Y   -0.135017  -0.203271   0.056836  -0.319867  -0.612875
    6  O  1  Z   -0.000000  -0.000000  -0.000000  -0.000000   0.000000
    7  O  1  X   -0.401817   0.239572  -0.216064   0.120738  -0.611526
    8  O  1  Y   -0.142846  -0.393903  -0.016181  -0.244455   1.278309
    9  O  1  Z   -0.000000  -0.000000  -0.000000  -0.000000   0.000000
   10  O  1 XX    0.009395   0.002351  -0.008617  -0.024680  -0.012273
   11  O  1 YY   -0.007276  -0.012083  -0.000747   0.081100   0.013085
   12  O  1 ZZ   -0.002119   0.009732   0.009364  -0.056419  -0.000813
   13  O  1 XY   -0.007451   0.011622   0.000701  -0.079190  -0.004944
   14  O  1 XZ   -0.000000  -0.000000  -0.000000  -0.000000   0.000000
   15  O  1 YZ   -0.000000  -0.000000  -0.000000  -0.000000   0.000000
   16  H  2  S    0.031436   0.063692  -0.030073   1.291168  -0.686997
   17  H  2  S    0.061591   1.461349  -0.153259  -0.872035  -0.338329
   18  H  2  X   -0.019949   0.015223   0.055196  -0.126856  -0.115611
   19  H  2  Y   -0.010935  -0.028073  -0.001678   0.268348   0.313694
   20  H  2  Z   -0.000000  -0.000000  -0.000000  -0.000000   0.000000
   21  H  3  S    0.339310  -0.064476  -1.307051  -0.074684  -0.015807
   22  H  3  S    0.573302  -0.188672   1.346355   0.162312   0.136824
   23  H  3  X    0.026648  -0.005634   0.044335   0.046420   0.161052
   24  H  3  Y    0.004260   0.001379   0.003718  -0.049195   0.253679
   25  H  3  Z   -0.000000  -0.000000  -0.000000  -0.000000   0.000000

                     11         12         13         14         15
                    1.1759     1.1801     1.4611     1.4658     1.4853
                     A          A          A          A          A   
    1  O  1  S    0.000000   0.064830  -0.000000  -0.257625   0.002481
    2  O  1  S    0.000000   0.151464  -0.000000  -0.601890  -0.021119
    3  O  1  S    0.000000  -0.297183  -0.000000   0.970256  -0.204054
    4  O  1  X    0.000000   0.733481  -0.000000   0.395770  -0.117898
    5  O  1  Y    0.000000   0.410515  -0.000000   0.143525   0.152852
    6  O  1  Z   -0.925206   0.000000   0.223935  -0.000000   0.000000
    7  O  1  X    0.000000  -0.635772  -0.000000  -0.414955   0.174323
    8  O  1  Y    0.000000  -0.561468  -0.000000   0.247446  -0.500879
    9  O  1  Z    1.001032   0.000000  -0.126699  -0.000000   0.000000
   10  O  1 XX    0.000000  -0.021534  -0.000000   0.081427  -0.044198
   11  O  1 YY    0.000000   0.008242  -0.000000  -0.056673   0.052961
   12  O  1 ZZ    0.000000   0.013292  -0.000000  -0.024754  -0.008763
   13  O  1 XY    0.000000   0.003407  -0.000000  -0.036280   0.013830
   14  O  1 XZ    0.003111   0.000000   0.033055  -0.000000   0.000000
   15  O  1 YZ   -0.002284   0.000000  -0.032123  -0.000000   0.000000
   16  H  2  S    0.000000   0.122687  -0.000000  -0.201909   0.328892
   17  H  2  S    0.000000   0.130974  -0.000000  -0.443367   0.068570
   18  H  2  X    0.000000   0.076974  -0.000000  -0.642788   0.294550
   19  H  2  Y    0.000000  -0.053901  -0.000000  -0.098748   0.027546
   20  H  2  Z    0.009032   0.000000  -0.344351  -0.000000   0.000000
   21  H  3  S    0.000000   0.156913  -0.000000  -0.075860   0.038983
   22  H  3  S    0.000000   0.010926  -0.000000   0.150745  -0.065389
   23  H  3  X    0.000000   0.441259  -0.000000  -0.489160  -0.001357
   24  H  3  Y    0.000000  -0.023852  -0.000000   0.237838   0.922482
   25  H  3  Z    0.218659   0.000000   0.915259  -0.000000   0.000000

                     16         17         18         19         20
                    1.5728     1.6181     1.9498     2.4438     2.9610
                     A          A          A          A          A   
    1  O  1  S   -0.000000  -0.474789  -0.469809   0.196134   0.000000
    2  O  1  S   -0.000000  -1.096123  -1.081141   0.508181   0.000000
    3  O  1  S   -0.000000   1.735603   1.489884   0.531031   0.000000
    4  O  1  X   -0.000000   0.165525  -0.348284  -0.339077   0.000000
    5  O  1  Y   -0.000000   0.038801  -0.031694   0.694125   0.000000
    6  O  1  Z    0.061649   0.000000   0.000000   0.000000  -0.004640
    7  O  1  X   -0.000000  -0.756370   0.549909  -0.046535   0.000000
    8  O  1  Y   -0.000000   0.361415   0.409242   0.109388   0.000000
    9  O  1  Z   -0.497175   0.000000   0.000000   0.000000   0.000211
   10  O  1 XX   -0.000000  -0.041865  -0.015309   0.033659   0.000000
   11  O  1 YY   -0.000000   0.043001  -0.077910  -0.115079   0.000000
   12  O  1 ZZ   -0.000000  -0.001137   0.093219   0.081419   0.000000
   13  O  1 XY   -0.000000   0.090957  -0.043068   0.110023   0.000000
   14  O  1 XZ   -0.055312   0.000000   0.000000   0.000000   0.904486
   15  O  1 YZ    0.127876   0.000000   0.000000   0.000000   0.426182
   16  H  2  S   -0.000000  -0.462395  -0.326627  -0.521063   0.000000
   17  H  2  S   -0.000000  -0.596446  -0.212878  -0.300984   0.000000
   18  H  2  X   -0.000000   0.490418  -0.366140  -0.562173   0.000000
   19  H  2  Y   -0.000000   0.547837  -0.054337   1.161880   0.000000
   20  H  2  Z    0.961355   0.000000   0.000000   0.000000   0.003155
   21  H  3  S   -0.000000   0.049304   0.028437  -0.029200   0.000000
   22  H  3  S   -0.000000   0.045989  -0.312415   0.038180   0.000000
   23  H  3  X   -0.000000  -0.233586   0.753719   0.030229   0.000000
   24  H  3  Y   -0.000000  -0.149552   0.086467   0.014939   0.000000
   25  H  3  Z    0.341723   0.000000   0.000000   0.000000  -0.021416

                     21         22         23         24
                    2.9802     3.2989     3.3112     4.0341
                     A          A          A          A   
    1  O  1  S    0.023600  -0.006781  -0.000000   0.096756
    2  O  1  S    0.053556  -0.015267  -0.000000   0.120760
    3  O  1  S   -0.057018   0.013153  -0.000000  -1.550628
    4  O  1  X    0.043496  -0.019581  -0.000000   0.179908
    5  O  1  Y    0.007833  -0.011182  -0.000000  -0.385776
    6  O  1  Z    0.000000  -0.000000  -0.011891   0.000000
    7  O  1  X   -0.084810   0.221022  -0.000000   0.455616
    8  O  1  Y   -0.005880   0.095373  -0.000000  -0.932536
    9  O  1  Z    0.000000  -0.000000   0.215178   0.000000
   10  O  1 XX   -0.723996  -0.692648  -0.000000   0.275670
   11  O  1 YY   -0.133495   0.713436  -0.000000  -0.910466
   12  O  1 ZZ    0.857491  -0.020788  -0.000000   0.634796
   13  O  1 XY   -0.375620   0.673653  -0.000000   0.847092
   14  O  1 XZ    0.000000  -0.000000  -0.450518   0.000000
   15  O  1 YZ    0.000000  -0.000000   0.954502   0.000000
   16  H  2  S    0.004534  -0.001175  -0.000000   1.633877
   17  H  2  S   -0.026127   0.009794  -0.000000   0.313336
   18  H  2  X    0.008158  -0.496433  -0.000000   0.474105
   19  H  2  Y    0.015272  -0.243391  -0.000000  -0.991163
   20  H  2  Z    0.000000  -0.000000  -0.545327   0.000000
   21  H  3  S    0.002180  -0.020417  -0.000000   0.012225
   22  H  3  S    0.066939  -0.014654  -0.000000  -0.032887
   23  H  3  X   -0.124575   0.034443  -0.000000  -0.011714
   24  H  3  Y   -0.011777  -0.013260  -0.000000   0.040732
   25  H  3  Z    0.000000  -0.000000  -0.012392   0.000000
 ...... END OF RHF CALCULATION ......
 STEP CPU TIME =     0.01 TOTAL CPU TIME =          0.0 (      0.0 MIN)
 TOTAL WALL CLOCK TIME=          0.0 SECONDS, CPU UTILIZATION IS    99.55%

     ----------------------------------------------------------------
     PROPERTY VALUES FOR THE RHF   SELF-CONSISTENT FIELD WAVEFUNCTION
     ----------------------------------------------------------------

          -----------------
          ENERGY COMPONENTS
          -----------------

         WAVEFUNCTION NORMALIZATION =       1.0000000000

                ONE ELECTRON ENERGY =    -118.2175567303
                TWO ELECTRON ENERGY =      35.6623999261
           NUCLEAR REPULSION ENERGY =       6.7588840849
                                      ------------------
                       TOTAL ENERGY =     -75.7962727192

 ELECTRON-ELECTRON POTENTIAL ENERGY =      35.6623999261
  NUCLEUS-ELECTRON POTENTIAL ENERGY =    -193.6520411031
   NUCLEUS-NUCLEUS POTENTIAL ENERGY =       6.7588840849
                                      ------------------
             TOTAL POTENTIAL ENERGY =    -151.2307570921
               TOTAL KINETIC ENERGY =      75.4344843729
                 VIRIAL RATIO (V/T) =       2.0047960604

  ...... PI ENERGY ANALYSIS ......

 ENERGY ANALYSIS:
            FOCK ENERGY=    -46.8927434153
          BARE H ENERGY=   -118.2175567303
     ELECTRONIC ENERGY =    -82.5551500728
         KINETIC ENERGY=     75.4344843729
          N-N REPULSION=      6.7588840849
           TOTAL ENERGY=    -75.7962659878
        SIGMA PART(1+2)=    -75.0903742888
               (K,V1,2)=     70.6791869790   -174.9767962869     29.2072350191
           PI PART(1+2)=     -7.4647757840
               (K,V1,2)=      4.7552973939    -18.6752448162      6.4551716384
  SIGMA SKELETON, ERROR=    -68.3314902039     -0.0000000000
             MIXED PART= 0.00000E+00 0.00000E+00 0.00000E+00 0.00000E+00
 ...... END OF PI ENERGY ANALYSIS ......

          ---------------------------------------
          MULLIKEN AND LOWDIN POPULATION ANALYSES
          ---------------------------------------

               ----- POPULATIONS IN EACH AO -----
                             MULLIKEN      LOWDIN
              1  O  1  S      2.00133     1.90694
              2  O  1  S      0.87680     0.64127
              3  O  1  S      0.95602     0.58314
              4  O  1  X      0.56577     0.53357
              5  O  1  Y      0.87552     0.82400
              6  O  1  Z      1.17766     1.14013
              7  O  1  X      0.53811     0.57128
              8  O  1  Y      0.52605     0.63589
              9  O  1  Z      0.79792     0.79535
             10  O  1 XX      0.00153     0.19765
             11  O  1 YY      0.00254     0.20238
             12  O  1 ZZ      0.00280     0.19977
             13  O  1 XY      0.00005     0.00517
             14  O  1 XZ      0.00076     0.00000
             15  O  1 YZ      0.00000     0.00022
             16  H  2  S      0.68142     0.54927
             17  H  2  S      0.05191     0.16759
             18  H  2  X      0.01755     0.04272
             19  H  2  Y      0.04046     0.07415
             20  H  2  Z      0.02330     0.06383
             21  H  3  S      0.36957     0.37164
             22  H  3  S      0.48897     0.48735
             23  H  3  X      0.00348     0.00593
             24  H  3  Y      0.00019     0.00029
             25  H  3  Z      0.00031     0.00047

          ----- MULLIKEN ATOMIC OVERLAP POPULATIONS -----
          (OFF-DIAGONAL ELEMENTS NEED TO BE MULTIPLIED BY 2)

             1           2           3

    1    7.8368377
    2    0.3356279   0.4826070
    3    0.1503767  -0.0035834   0.7157129

          TOTAL MULLIKEN AND LOWDIN ATOMIC POPULATIONS
       ATOM         MULL.POP.    CHARGE          LOW.POP.     CHARGE
    1 O             8.322842   -0.322842         8.236752   -0.236752
    2 H             0.814651    0.185349         0.897565    0.102435
    3 H             0.862506    0.137494         0.865683    0.134317

          MULLIKEN SPHERICAL HARMONIC POPULATIONS
       ATOM           S       P       D      F      G      H      I    TOTAL
    1 O             3.83    4.48    0.01   0.00   0.00   0.00   0.00    8.32
    2 H             0.73    0.08    0.00   0.00   0.00   0.00   0.00    0.81
    3 H             0.86    0.00    0.00   0.00   0.00   0.00   0.00    0.86

          ---------------------
          ELECTROSTATIC MOMENTS
          ---------------------

 POINT   1           X           Y           Z (BOHR)    CHARGE
                 0.052893    0.000034    0.000000       -0.00 (A.U.)
         DX          DY          DZ         /D/  (DEBYE)
     0.807098    1.794354    0.000000    1.967514
 ...... END OF PROPERTY EVALUATION ......
 STEP CPU TIME =     0.00 TOTAL CPU TIME =          0.0 (      0.0 MIN)
 TOTAL WALL CLOCK TIME=          0.0 SECONDS, CPU UTILIZATION IS    99.55%

 DETERMINANT CI OPTIONS   NRNFG   NPFLG
 INTEGRAL TRANSFORMATION    1       0
 DIAGONALIZE HAMILTONIAN    1       0
 FORM 1E- DENSITY MATRIX    1       0
 FORM 2E- DENSITY MATRIX    0       0

     --------------------------------------------------
          AMES LABORATORY DETERMINANTAL FULL CI
     PROGRAM WRITTEN BY JOE IVANIC AND KLAUS RUEDENBERG
     --------------------------------------------------

 THE POINT GROUP                  =   C1      
 THE STATE SYMMETRY               =   A       
 NUMBER OF CORE ORBITALS          =    1
 NUMBER OF ACTIVE ORBITALS        =   23
 NUMBER OF ALPHA ELECTRONS        =    5 (   4 ACTIVE)
 NUMBER OF BETA ELECTRONS         =    5 (   4 ACTIVE)
 NUMBER OF OCCUPIED ORBITALS      =   24
 NUMBER OF CI STATES REQUESTED    =    1
 NUMBER OF CI STARTING VECTORS    =    1
 MAX. NO. OF CI EXPANSION VECTORS =   10
 SIZE OF INITIAL CI GUESS MATRIX  =  300
 MAX. NO. OF CI ITERS/STATE       =  100
 CI DIAGONALIZATION CRITERION     = 1.00E-06
 CI PROPERTIES WILL BE FOUND FOR ROOT NUMBER   1
 1E- DENSITY MATRIX OPTIONS ARE 1

 CORRELATION ENERGY ANALYSIS      =    F

 SYMMETRIES FOR THE   1 CORE,  23 ACTIVE ARE

     CORE= A   

   ACTIVE= A     A     A     A     A     A     A     A     A     A   
           A     A     A     A     A     A     A     A     A     A   
           A     A     A   

     --------------------------------------------
     PARTIAL TWO ELECTRON INTEGRAL TRANSFORMATION
     --------------------------------------------

 NUMBER OF CORE MOLECULAR ORBITALS     =    1
 NUMBER OF OCCUPIED MOLECULAR ORBITALS =   24
 TOTAL NUMBER OF MOLECULAR ORBITALS    =   24
 TOTAL NUMBER OF ATOMIC ORBITALS       =   25
 THRESHOLD FOR KEEPING TRANSFORMED 2E- INTEGRALS = 1.000E-09
 AO INTEGRALS WILL BE CALCULATED IN DIRECT MODE...
 EVALUATING THE FROZEN CORE ENERGY...
 ----- FROZEN CORE ENERGY =       -60.7412014923

 PLAN A: REQUIREMENTS FOR FULLY IN-MEMORY TRANSFORMATION:
 # OF WORDS AVAILABLE =           1755359999
 # OF WORDS NEEDED    =               295604

 CHOOSING IN MEMORY PARTIAL TRANSFORMATION...
 DIRECT TRANSFORMATION SKIPS AO INTEGRAL STORAGE ON DISK.
 TOTAL NUMBER OF TRANSFORMED 2E- INTEGRALS KEPT =        20478
 ... END OF INTEGRAL TRANSFORMATION ...
 STEP CPU TIME =     0.01 TOTAL CPU TIME =          0.0 (      0.0 MIN)
 TOTAL WALL CLOCK TIME=          0.0 SECONDS, CPU UTILIZATION IS    99.59%

     --------------------------------------------------
          AMES LABORATORY DETERMINANTAL FULL CI
     PROGRAM WRITTEN BY JOE IVANIC AND KLAUS RUEDENBERG
     --------------------------------------------------

 THE NUMBER OF DETERMINANTS HAVING SPACE SYMMETRY A  
 IN POINT GROUP C1   WITH SZ=  0.0 IS       78411025
 WHICH INCLUDES       18818646 CSFS WITH S=  0.0
 WHICH INCLUDES       34052788 CSFS WITH S=  1.0
 WHICH INCLUDES       19900980 CSFS WITH S=  2.0
 WHICH INCLUDES        5148297 CSFS WITH S=  3.0
 WHICH INCLUDES         490314 CSFS WITH S=  4.0
 THE DETERMINANT FULL CI REQUIRES      1647652502 WORDS
 INITIAL CI VECTOR GUESS TIME  :          6.2
 INITIAL FULL CI ITERATION TIME:        188.9

 ITERATION      ENERGY           GRADIENT
     0      -75.9127061314     0.85480373
     1      -76.0715390546     0.25059371
     2      -76.0813049480     0.08254216
     3      -76.0824355543     0.03283204
     4      -76.0826427231     0.01336787
     5      -76.0826771085     0.00538621
     6      -76.0826823381     0.00219131
     7      -76.0826832158     0.00100754
     8      -76.0826834225     0.00047686
     9      -76.0826834635     0.00022400
    10      -76.0826834679     0.00010104
    11      -76.0826834717     0.00007520
    12      -76.0826834729     0.00004390
    13      -76.0826834733     0.00002430
    14      -76.0826834735     0.00001422
    15      -76.0826834735     0.00000694
    16      -76.0826834735     0.00000347
    17      -76.0826834735     0.00000164
    18      -76.0826834735     0.00000078

 CONVERGED STATE    1 ENERGY=      -76.0826834735 IN   18 ITERS

 ALL STATES CONVERGED.

 CI EIGENVECTORS WILL BE LABELED IN GROUP=C1      
 PRINTING CI COEFFICIENTS LARGER THAN 5.000E-02

 STATE   1  ENERGY=       -76.0826834735  S=  0.00  SZ=  0.00  SPACE SYM=A   

         ALPHA           |         BETA            | CI COEFFICIENT
-------------------------|-------------------------|---------------
 11110000000000000000000 | 11110000000000000000000 |   0.8687296286
 11101000000000000000000 | 11101000000000000000000 |  -0.4138145057
 11101000000000000000000 | 11100010000000000000000 |   0.0556461788
 11100010000000000000000 | 11101000000000000000000 |   0.0556461788
 ..... DONE WITH DETERMINANT CI COMPUTATION .....
 STEP CPU TIME =  3640.53 TOTAL CPU TIME =       3640.6 (     60.7 MIN)
 TOTAL WALL CLOCK TIME=       3646.7 SECONDS, CPU UTILIZATION IS    99.83%

     ---------------------------
     ONE PARTICLE DENSITY MATRIX
     ---------------------------

 DENSITY MATRIX WILL BE SAVED FOR   1-TH STATE WITH S= 0.00

 CI EIGENSTATE   1 TOTAL ENERGY =      -76.0826834735

          NATURAL ORBITALS IN ATOMIC ORBITAL BASIS
          ----------------------------------------

                      1          2          3          4          5
                    2.0000     1.9818     1.9728     1.9626     1.5979
                     A          A          A          A          A   
    1  O  1  S    1.000678  -0.004381   0.000000   0.002696  -0.001695
    2  O  1  S    0.000418   0.489045   0.000000   0.007934  -0.022566
    3  O  1  S   -0.002750   0.533646   0.000000  -0.181094  -0.043517
    4  O  1  X   -0.000090   0.017869   0.000000  -0.198792   0.413197
    5  O  1  Y    0.001560  -0.078797   0.000000   0.491164   0.193701
    6  O  1  Z   -0.000000  -0.000000   0.648072  -0.000000   0.000000
    7  O  1  X   -0.000139   0.026590   0.000000  -0.090462   0.287321
    8  O  1  Y   -0.000489  -0.090016   0.000000   0.254037   0.152530
    9  O  1  Z   -0.000000  -0.000000   0.488118  -0.000000   0.000000
   10  O  1 XX   -0.000340   0.001678   0.000000  -0.007558  -0.001402
   11  O  1 YY    0.000227  -0.001125   0.000000   0.018228   0.005344
   12  O  1 ZZ    0.000113  -0.000552   0.000000  -0.010670  -0.003942
   13  O  1 XY   -0.000281   0.000163   0.000000  -0.013671   0.010399
   14  O  1 XZ   -0.000000  -0.000000  -0.004658  -0.000000   0.000000
   15  O  1 YZ   -0.000000  -0.000000   0.014918  -0.000000   0.000000
   16  H  2  S   -0.000315   0.089591   0.000000   0.432937  -0.012258
   17  H  2  S    0.000620  -0.008919   0.000000   0.082475  -0.003492
   18  H  2  X   -0.000324   0.012111   0.000000   0.020950   0.016729
   19  H  2  Y    0.000737  -0.027718   0.000000  -0.040072   0.012922
   20  H  2  Z   -0.000000  -0.000000   0.035373  -0.000000   0.000000
   21  H  3  S    0.000025   0.009280   0.000000  -0.011310   0.366009
   22  H  3  S    0.000249   0.006809   0.000000  -0.016785   0.326033
   23  H  3  X   -0.000188  -0.004704   0.000000   0.004629  -0.003509
   24  H  3  Y   -0.000021  -0.001144   0.000000   0.003661   0.003127
   25  H  3  Z   -0.000000  -0.000000   0.005529  -0.000000   0.000000

                      6          7          8          9         10
                    0.3969     0.0289     0.0174     0.0099     0.0065
                     A          A          A          A          A   
    1  O  1  S    0.000579  -0.046228   0.000000   0.529948  -0.133859
    2  O  1  S    0.044746  -0.230759   0.000000   1.328439  -0.324304
    3  O  1  S    0.086132  -0.326623   0.000000  -1.206284   0.336993
    4  O  1  X    0.496372   0.332673   0.000000  -0.037253  -0.803743
    5  O  1  Y    0.190400  -0.768669   0.000000  -0.411401  -0.265227
    6  O  1  Z    0.000000   0.000000  -0.952643  -0.000000   0.000000
    7  O  1  X    0.289823   0.013481   0.000000  -0.070410   0.873356
    8  O  1  Y    0.093700   0.050313   0.000000   0.640130   0.261293
    9  O  1  Z    0.000000   0.000000   0.988735  -0.000000   0.000000
   10  O  1 XX   -0.013302  -0.010442   0.000000  -0.002165  -0.165119
   11  O  1 YY    0.009325   0.037716   0.000000  -0.042771   0.177256
   12  O  1 ZZ    0.003977  -0.027274   0.000000   0.044936  -0.012137
   13  O  1 XY    0.007509  -0.033594   0.000000   0.081890   0.161128
   14  O  1 XZ    0.000000   0.000000  -0.011795  -0.000000   0.000000
   15  O  1 YZ    0.000000   0.000000   0.030656  -0.000000   0.000000
   16  H  2  S   -0.012924   0.824646   0.000000  -0.210602  -0.005136
   17  H  2  S    0.000500   0.191955   0.000000   0.062742   0.002128
   18  H  2  X    0.017490   0.020837   0.000000   0.010230   0.186747
   19  H  2  Y    0.006731  -0.024057   0.000000   0.061891   0.083513
   20  H  2  Z    0.000000   0.000000   0.105628  -0.000000   0.000000
   21  H  3  S   -0.490774  -0.004370   0.000000   0.028085  -0.238605
   22  H  3  S   -0.368103  -0.016517   0.000000   0.070801  -0.052452
   23  H  3  X    0.005797   0.010186   0.000000   0.033684   0.002307
   24  H  3  Y   -0.002913   0.007633   0.000000   0.018366   0.010434
   25  H  3  Z    0.000000   0.000000   0.022138  -0.000000   0.000000

                     11         12         13         14         15
                    0.0052     0.0047     0.0039     0.0038     0.0037
                     A          A          A          A          A   
    1  O  1  S   -0.235765   0.000000  -0.024265   0.000000   0.000682
    2  O  1  S   -0.537563   0.000000  -0.056797   0.000000  -0.001965
    3  O  1  S    0.822456   0.000000   0.068001   0.000000  -0.033702
    4  O  1  X    0.100111   0.000000  -0.286285   0.000000  -0.044291
    5  O  1  Y   -0.132806   0.000000  -0.124866   0.000000  -0.007597
    6  O  1  Z   -0.000000   0.064496  -0.000000   0.005786  -0.000000
    7  O  1  X   -0.329669   0.000000   0.497727   0.000000   0.095400
    8  O  1  Y    0.601371   0.000000   0.214066   0.000000  -0.021693
    9  O  1  Z   -0.000000  -0.250420  -0.000000  -0.018167  -0.000000
   10  O  1 XX    0.154016   0.000000   0.589071   0.000000  -0.639719
   11  O  1 YY   -0.451469   0.000000  -0.528115   0.000000  -0.246964
   12  O  1 ZZ    0.297453   0.000000  -0.060956   0.000000   0.886683
   13  O  1 XY    0.448965   0.000000  -0.434789   0.000000  -0.389503
   14  O  1 XZ   -0.000000  -0.408389  -0.000000   0.879236  -0.000000
   15  O  1 YZ   -0.000000   0.726597  -0.000000   0.474476  -0.000000
   16  H  2  S   -0.675454   0.000000   0.016397   0.000000   0.046907
   17  H  2  S    0.223924   0.000000  -0.010954   0.000000   0.035099
   18  H  2  X   -0.060904   0.000000  -0.295711   0.000000  -0.022666
   19  H  2  Y    0.145025   0.000000  -0.144265   0.000000  -0.017251
   20  H  2  Z   -0.000000   0.355853  -0.000000   0.015240  -0.000000
   21  H  3  S   -0.029544   0.000000  -0.099357   0.000000   0.024089
   22  H  3  S   -0.030625   0.000000  -0.064861   0.000000  -0.022755
   23  H  3  X   -0.025451   0.000000  -0.044930   0.000000   0.065529
   24  H  3  Y    0.013569   0.000000  -0.033736   0.000000  -0.005896
   25  H  3  Z   -0.000000  -0.014353  -0.000000   0.028652  -0.000000

                     16         17         18         19         20
                    0.0011     0.0008     0.0007     0.0006     0.0004
                     A          A          A          A          A   
    1  O  1  S    0.296612  -0.227324   0.000000  -0.033548  -0.011892
    2  O  1  S    0.605738  -0.524103   0.000000  -0.084749  -0.039232
    3  O  1  S   -1.154711   0.029321   0.000000  -0.070596  -0.086792
    4  O  1  X   -0.133803   0.278576   0.000000   0.085346  -0.030143
    5  O  1  Y    0.295508  -0.567665   0.000000  -0.064781  -0.017277
    6  O  1  Z   -0.000000  -0.000000   0.048911   0.000000  -0.000000
    7  O  1  X    0.510398   0.027910   0.000000  -0.422466   0.186851
    8  O  1  Y   -1.114473  -0.018998   0.000000  -0.234100   0.067026
    9  O  1  Z   -0.000000  -0.000000  -0.504621   0.000000  -0.000000
   10  O  1 XX    0.185556   0.042206   0.000000   0.457303  -0.137665
   11  O  1 YY   -0.529795  -0.332102   0.000000  -0.491309   0.151756
   12  O  1 ZZ    0.344238   0.289895   0.000000   0.034006  -0.014092
   13  O  1 XY    0.536851   0.436353   0.000000  -0.315869   0.190374
   14  O  1 XZ   -0.000000  -0.000000   0.291033   0.000000  -0.000000
   15  O  1 YZ   -0.000000  -0.000000  -0.595973   0.000000  -0.000000
   16  H  2  S    1.453795   1.118436   0.000000   0.200554   0.042880
   17  H  2  S   -0.129839  -0.920572   0.000000  -0.151576  -0.053065
   18  H  2  X   -0.041238   0.326859   0.000000   0.950806  -0.431122
   19  H  2  Y    0.108217  -0.975809   0.000000   0.240040  -0.262387
   20  H  2  Z   -0.000000  -0.000000   1.094763   0.000000  -0.000000
   21  H  3  S   -0.017120   0.057690   0.000000  -0.278172  -0.865262
   22  H  3  S    0.033997   0.052351   0.000000   0.414024   0.892932
   23  H  3  X   -0.009163  -0.086495   0.000000   0.265753   0.594327
   24  H  3  Y   -0.027005  -0.065008   0.000000   0.074568   0.135758
   25  H  3  Z   -0.000000  -0.000000  -0.032250   0.000000  -0.000000

                     21         22         23         24
                    0.0001     0.0001     0.0001     0.0001
                     A          A          A          A   
    1  O  1  S    0.000000   0.030139  -0.264212  -0.059709
    2  O  1  S    0.000000   0.047287  -0.488431  -0.072752
    3  O  1  S    0.000000  -0.361162   2.104720   1.271669
    4  O  1  X    0.000000   0.025667  -0.199001   0.060850
    5  O  1  Y    0.000000  -0.023295   0.192411   0.197445
    6  O  1  Z    0.047412  -0.000000   0.000000   0.000000
    7  O  1  X    0.000000   0.124996  -0.132745  -0.840456
    8  O  1  Y    0.000000  -0.292201   0.933950   0.735452
    9  O  1  Z   -0.110885  -0.000000   0.000000   0.000000
   10  O  1 XX    0.000000   0.025384  -0.054757  -0.132630
   11  O  1 YY    0.000000  -0.101989   0.281991   0.257313
   12  O  1 ZZ    0.000000   0.076605  -0.227234  -0.124684
   13  O  1 XY    0.000000   0.067715  -0.236710  -0.302126
   14  O  1 XZ   -0.023151  -0.000000   0.000000   0.000000
   15  O  1 YZ   -0.030214  -0.000000   0.000000   0.000000
   16  H  2  S    0.000000   0.324428  -0.717007  -0.595353
   17  H  2  S    0.000000   0.105773  -1.180253  -1.207887
   18  H  2  X    0.000000   0.083513  -0.521831  -0.309721
   19  H  2  Y    0.000000  -0.223386   0.931677   0.904550
   20  H  2  Z    0.059627  -0.000000   0.000000   0.000000
   21  H  3  S    0.000000   0.037690   0.505078  -0.655817
   22  H  3  S    0.000000  -0.052644  -0.556367   0.968613
   23  H  3  X    0.000000  -0.206997   0.499960  -0.610691
   24  H  3  Y    0.000000   0.972669   0.170160  -0.033094
   25  H  3  Z    1.000170  -0.000000   0.000000   0.000000
 ..... DONE WITH ONE PARTICLE DENSITY MATRIX .....
 STEP CPU TIME =    23.75 TOTAL CPU TIME =       3664.3 (     61.1 MIN)
 TOTAL WALL CLOCK TIME=       3670.4 SECONDS, CPU UTILIZATION IS    99.83%

     --------------------------------------------------------
     ALDET CI PROPERTIES...FOR THE WAVEFUNCTION OF STATE    1
               USING THE EXPECTATION VALUE DENSITY
     --------------------------------------------------------

          -----------------
          ENERGY COMPONENTS
          -----------------

         WAVEFUNCTION NORMALIZATION =       1.0000000000

                ONE ELECTRON ENERGY =    -117.9141741090
                TWO ELECTRON ENERGY =      35.0726065505
           NUCLEAR REPULSION ENERGY =       6.7588840849
                                      ------------------
                       TOTAL ENERGY =     -76.0826834735

 ELECTRON-ELECTRON POTENTIAL ENERGY =      35.0726065505
  NUCLEUS-ELECTRON POTENTIAL ENERGY =    -193.8283269618
   NUCLEUS-NUCLEUS POTENTIAL ENERGY =       6.7588840849
                                      ------------------
             TOTAL POTENTIAL ENERGY =    -151.9968363264
               TOTAL KINETIC ENERGY =      75.9141528529
                 VIRIAL RATIO (V/T) =       2.0022200158

          ---------------------------------------
          MULLIKEN AND LOWDIN POPULATION ANALYSES
          ---------------------------------------

               ----- POPULATIONS IN EACH AO -----
                             MULLIKEN      LOWDIN
              1  O  1  S      2.00132     1.90717
              2  O  1  S      0.88302     0.64653
              3  O  1  S      0.94782     0.58130
              4  O  1  X      0.63605     0.60033
              5  O  1  Y      0.85255     0.79996
              6  O  1  Z      1.15749     1.12212
              7  O  1  X      0.41335     0.45436
              8  O  1  Y      0.47646     0.59435
              9  O  1  Z      0.80605     0.80153
             10  O  1 XX      0.00523     0.20090
             11  O  1 YY      0.00578     0.20372
             12  O  1 ZZ      0.00626     0.20151
             13  O  1 XY      0.00392     0.00924
             14  O  1 XZ      0.00455     0.00383
             15  O  1 YZ      0.00000     0.00399
             16  H  2  S      0.69813     0.55858
             17  H  2  S      0.06138     0.17272
             18  H  2  X      0.01718     0.03993
             19  H  2  Y      0.03756     0.07296
             20  H  2  Z      0.02700     0.06735
             21  H  3  S      0.51313     0.49604
             22  H  3  S      0.44373     0.45645
             23  H  3  X      0.00125     0.00402
             24  H  3  Y      0.00033     0.00047
             25  H  3  Z      0.00046     0.00064

          ----- MULLIKEN ATOMIC OVERLAP POPULATIONS -----
          (OFF-DIAGONAL ELEMENTS NEED TO BE MULTIPLIED BY 2)

             1           2           3

    1    7.8267648
    2    0.3073737   0.5368814
    3    0.0657126  -0.0030050   0.8961913

          TOTAL MULLIKEN AND LOWDIN ATOMIC POPULATIONS
       ATOM         MULL.POP.    CHARGE          LOW.POP.     CHARGE
    1 O             8.199851   -0.199851         8.130844   -0.130844
    2 H             0.841250    0.158750         0.911543    0.088457
    3 H             0.958899    0.041101         0.957613    0.042387

          MULLIKEN SPHERICAL HARMONIC POPULATIONS
       ATOM           S       P       D      F      G      H      I    TOTAL
    1 O             3.83    4.34    0.03   0.00   0.00   0.00   0.00    8.20
    2 H             0.76    0.08    0.00   0.00   0.00   0.00   0.00    0.84
    3 H             0.96    0.00    0.00   0.00   0.00   0.00   0.00    0.96

          ---------------------
          ELECTROSTATIC MOMENTS
          ---------------------

 POINT   1           X           Y           Z (BOHR)    CHARGE
                 0.052893    0.000034    0.000000        0.00 (A.U.)
         DX          DY          DZ         /D/  (DEBYE)
    -0.199634    1.536628    0.000000    1.549542
 ...... END OF PROPERTY EVALUATION ......
 STEP CPU TIME =     0.00 TOTAL CPU TIME =       3664.3 (     61.1 MIN)
 TOTAL WALL CLOCK TIME=       3670.4 SECONDS, CPU UTILIZATION IS    99.83%
           1647653393  WORDS OF DYNAMIC MEMORY USED
 EXECUTION OF GAMESS TERMINATED NORMALLY 09:10:12 27-JUL-2025    
 DDI: 263640 bytes (0.3 MB / 0 MWords) used by master data server.

 ----------------------------------------
 CPU timing information for all processes
 ========================================
 0: 3661.398 + 3.326 = 3664.724
 ----------------------------------------
 ddikick.x: exited gracefully.
----- accounting info -----
Files used on the parent node dodecaedro were:
-rw-r--r-- 1 paulo paulo     21121 Jul 27 09:10 /home/paulo/gamess/restart/H2O_CISDTQ5678.dat
-rw-r--r-- 1 paulo paulo      2510 Jul 27 08:09 /home/paulo/gamess/restart/H2O_CISDTQ5678.F05
-rw-r--r-- 1 paulo paulo    362248 Jul 27 08:09 /home/paulo/gamess/restart/H2O_CISDTQ5678.F09
-rw-r--r-- 1 paulo paulo   1897760 Jul 27 09:10 /home/paulo/gamess/restart/H2O_CISDTQ5678.F10
-rw-r--r-- 1 paulo paulo 627288232 Jul 27 09:09 /home/paulo/gamess/restart/H2O_CISDTQ5678.F12
-rw-r--r-- 1 paulo paulo    130880 Jul 27 08:09 /home/paulo/gamess/restart/H2O_CISDTQ5678.F26R
-rw-r--r-- 1 paulo paulo         0 Jul 27 08:09 /home/paulo/gamess/restart/H2O_CISDTQ5678.F27R
Sun Jul 27 09:10:13 AM WEST 2025
0.114u 0.156s 1:01:12.20 0.0%	0+0k 0+8io 0pf+0w
