1 : H2O_CISDTQ.inp
2 : 00
3 : 1
----- GAMESS execution script 'rungms' -----
This job is running on host dodecaedro
under operating system Linux at Sun Jul 27 07:40:24 AM WEST 2025
Available scratch disk space (Kbyte units) at beginning of the job is
Filesystem      1K-blocks       Used  Available Use% Mounted on
/dev/sdb1      5813177436 4499098672 1021036304  82% /home
GAMESS temporary binary files will be written to /home/paulo/gamess/restart
GAMESS supplementary output files will be written to /home/paulo/gamess/restart
Copying input file /home/paulo/WORK/H2O-CCD/non-eq/H2O_CISDTQ.inp to your run's scratch directory...
removed '/home/paulo/gamess/restart/H2O_CISDTQ.dat'

 Distributed Data Interface kickoff program.
 Initiating 1 compute processes on 1 nodes to run the following command:
 /home/paulo/WORK/BUILD/GAMESS/Nov2023/gamess/gamess.00.x H2O_CISDTQ 

          *******************************************************
          *                                                     *
          *          GAMESS VERSION = 30 SEP 2023 (R2)          *
          *                                                     *
          *              doi.org/10.1063/5.0005188              *
          *                                                     *
          **************** 64 BIT LINUX VERSION *****************

  GAMESS HAS BEEN MADE POSSIBLE WITH IMPORTANT CONTRIBUTIONS FROM
  THE FOLLOWING INDIVIDUALS (IN ALPHABETICAL ORDER):

     IVANA ADAMOVIC, CHRISTINE AIKENS, TOMOKO AKAMA,
     MELISA ALKAN, YURI ALEXEEV, YURIKO AOKI, POOJA ARORA,
     TOSHIO ASADA, ANDREY ASADCHEV, KIM K. BALDRIDGE,
     PRADIPTA BANDYOPADHYAY, TAYLOR A. BARNES, MARIA BARYSZ,
     ROB BELL, JONATHAN BENTZ, COLLEEN BERTONI,
     JERRY A. BOATZ, BRETT BODE, KURT BRORSEN, KURT R. BRORSEN,
     LAIMUTIS BYTAUTAS, CALEB CARLIN, LAURA CARRINGTON,
     GALINA CHABAN, BENOIT CHAMPAGNE, WEI CHEN, MAHITO CHIBA,
     DAN CHIPMAN, CHEOL HO CHOI, TANNER CULPITT,
     DIPAYAN DATTA, PAUL DAY, ALBERT DEFUSCO,
     NUWAN DESILVA, J. EMILIANO DEUSTUA,
     TIM DUDLEY, MICHEL DUPUIS, STEVEN T. ELBERT,
     DMITRI FEDOROV, KATHERINE FERRERAS, MICHAEL FILATOV,
     ALEX FINDLATER,GRAHAM FLETCHER, MARK FREITAG,
     CHRISTIAN FRIEDL, DAVID GARMER, 
     IGOR S. GERASIMOV, KURT GLAESEMANN,
     MARK S. GORDON, JEFFREY R. GOUR, FENG LONG GU,
     EMILIE B. GUIDEZ, ANASTASIA GUNINA, SHARON HAMMES-SCHIFFER,
     MASATAKE HARUTA, KIMIHIKO HIRAO, YASUHIRO IKABATA,
     TZVETELIN IORDANOV, STEPHAN IRLE, KAZUYA ISHIMURA,
     JOE IVANIC, FRANK JENSEN, JAN H. JENSEN, VISVALDAS KAIRYS,
     MUNEAKI KAMIYA, MICHIO KATOUDA, NAOAKI KAWAKAMI, DAN KEMP,
     BERNARD KIRTMAN, KAZUO KITAURA, MARIUSZ KLOBUKOWSKI,
     MASATO KOBAYASHI, KONSTANTIN KOMAROV, PRAKASHAN KORAMBATH,
     JACEK KORCHOWIEC, SHIRO KOSEKI, KAROL KOWALSKI,
     JIMMY KROMANN, STANISLAW A. KUCHARSKI, HENRY KURTZ,
     SAROM SOK LEANG, SEUNGHOON LEE, HUI LI, SHUHUA LI, WEI LI,
     JESSE J. LUTZ, ALEKSANDR O. LYKHIN,
     ILIAS MAGOULAS, MARCIN MAKOWSKI,
     JOANI MATO, NIKITA MATSUNAGA, BENEDETTA MENNUCCI,
     GRANT MERRILL, NORIYUKI MINEZAWA, VLADIMIR MIRONOV,
     EISAKU MIYOSHI, JOHN A. MONTGOMERY JR., HIROTOSHI MORI,
     JONATHAN MULLIN, MONIKA MUSIAL, SHIGERU NAGASE,
     TAKESHI NAGATA, HIROMI NAKAI, TAKAHITO NAKAJIMA,
     YUYA NAKAJIMA, HARUYUKI NAKANO, HIROYA NAKATA, SEAN NEDD,
     HEATHER NETZLOFF, KIET A. NGUYEN, YOSHIO NISHIMOTO,
     BOSILJKA NJEGIC, RYAN OLSON, MIKE PAK, ROBERTO PEVERATI,
     BUU PHAM, PIOTR PIECUCH, ANNA POMOGAEVA, DAVID POOLE,
     SPENCER PRUITT, OLIVIER QUINET, LUKE ROSKOP,
     KLAUS RUEDENBERG, ANDREW SAND, TOSAPORN SATTASATHUCHANA,
     NOZOMI SAWADA, MICHAEL W. SCHMIDT, PATRICK E. SCHNEIDER,
     JUNJI SEINO, PRACHI SHARMA, JUN SHEN, JIM SHOEMAKER,
     GEORGE SCHOENDORFF, YINAN SHU, DEJUN SI, JONATHAN SKONE,
     LYUDMILA SLIPCHENKO, TONY SMITH, JIE SONG, MARK SPACKMAN,
     CASPER STEINMANN, WALT STEVENS, PEIFENG SU, SHUJUN SU,
     CHET SWALINA, CHINAMI TAKASHIMA, TETSUYA TAKETSUGU,
     ZHEN TAO, NANDUN THELLAMUREGE, SEIKEN TOKURA,
     JACOPO TOMASI, TSUGUKI TOUMA, TAKAO TSUNEDA, HIROAKI UMEDA,
     JORGE LUIS GALVEZ VALLEJO, YALI WANG, SIMON WEBB,
     AARON WEST, THERESA L. WINDUS, MARTA WLOCH,
     PENG XU, KIYOSHI YAGI, SUSUMU YANAGISAWA, YANG YANG,
     SOOHAENG YOO, TAKESHI YOSHIKAWA, FEDERICO ZAHARIEV,
     TOBY ZENG

  WHO ARE SUPPORTED BY THEIR INSTITUTION/UNIVERSITY/COMPANY/GROUP
  (IN ALPHABETICAL ORDER):

     EP ANALYTICS,
     FACULTES UNIVERSITAIRES NOTRE-DAME DE LA PAIX,
     INSTITUTE FOR MOLECULAR SCIENCE, IOWA STATE UNIVERSITY,
     JACKSON STATE UNIVERSITY, JOHANNES KEPLER UNIVERSITY LINZ,
     KYUNGPOOK NATIONAL UNIVERSITY
     KYUSHU UNIVERSITY, MICHIGAN STATE UNIVERSITY,
     MIE UNIVERSITY, THE MOLECULAR SCIENCES SOFTWARE INSTITUTE,
     MOSCOW STATE UNIVERSITY,
     N. COPERNICUS UNIVERSITY, NAGOYA UNIVERSITY,
     NANJING UNIVERSITY, NAT. INST. OF ADVANCED INDUSTRIAL
     SCIENCE AND TECHNOLOGY, NATIONAL INST. OF STANDARDS AND
     TECHNOLOGY, NESMEYANOV INSTITUTE OF ORGANOELEMENT COMPOUNDS
     OF RUSSIAN ACADEMY OF SCIENCES, OSAKA PREFECTURE UNIVERSITY,
     PENNSYLVANIA STATE UNIVERSITY, TOKYO INSTITUTE OF TECHNOLOGY,
     UNIVERSITY OF AARHUS, UNIVERSITY OF ALBERTA,
     UNIVERSITY OF CALIFORNIA AT SANTA BARBARA,
     UNIVERSITY OF COPENHAGEN, UNIVERSITY OF IOWA,
     UNIVERSITY OF MEMPHIS, UNIVERSITY OF MINNESOTA,
     UNIVERSITY OF NEBRASKA, UNIVERSITY OF NEW ENGLAND,
     UNIVERSITY OF NOTRE DAME, UNIVERSITY OF PISA,
     UNIVERSITY OF SILESIA, UNIVERSITY OF TOKYO,
     UNIVERSITY OF ZURICH, WASEDA UNIVERSITY,
     YALE UNIVERSITY

  GAMESS SOFTWARE MANAGEMENT TEAM FOR THIS RELEASE:
     MARK S. GORDON (TEAM LEAD),
     BRETT BODE (SENIOR ADVISOR),
     GIUSEPPE BARCA,
     COLLEEN BERTONI,
     KRISTOPHER KEIPERT (ADVISOR),
     SAROM S. LEANG (DEVELOPMENT LEAD),
     BUU PHAM,
     JACKSON HAYES (WEBSITE ADMINISTRATOR),
     PENG XU

 EXECUTION OF GAMESS BEGUN 07:40:24 27-JUL-2025    

            ECHO OF THE FIRST FEW INPUT CARDS -
 INPUT CARD>!   File created by MacMolPlt 7.7.3                                             
 INPUT CARD> $CONTRL SCFTYP=RHF RUNTYP=ENERGY EXETYP=RUN CITYP=ALDET MAXIT=30               
 INPUT CARD>         MULT=1 ISPHER=1                                                        
 INPUT CARD> $END                                                                           
 INPUT CARD> $SYSTEM TIMLIM=525600 MEMORY=65536000 MEMDDI=3750 $END                         
 INPUT CARD> $BASIS GBASIS=CCD $END                                                         
 INPUT CARD> $GUESS GUESS=MOREAD NORB=5 $END                                                
 INPUT CARD> $CIDET NCORE=3 NACT=21 NELS=4 $END                                             
 INPUT CARD> $SCF DIRSCF=.TRUE. $END                                                        
 INPUT CARD> $DATA                                                                          
 INPUT CARD>Title                                                                           
 INPUT CARD>C1                                                                              
 INPUT CARD>O     8.0    -0.05922    -0.06452     0.00000                                   
 INPUT CARD>H     1.0    -0.47260     0.79970    -0.00000                                   
 INPUT CARD>H     1.0     1.91266     0.22460     0.00000                                   
 INPUT CARD> $END                                                                           
 INPUT CARD> $VEC                                                                           
 INPUT CARD> 1  1 1.00067794E+00 4.18000011E-04-2.74999999E-03-9.00000014E-05 1.56000000E-03
 INPUT CARD> 1  2-0.00000000E+00-1.38999996E-04-4.88999998E-04-0.00000000E+00-3.39999999E-04
 INPUT CARD> 1  3 2.26999997E-04 1.13000002E-04-2.80999986E-04-0.00000000E+00-0.00000000E+00
 INPUT CARD> 1  4-3.15000012E-04 6.20000006E-04-3.23999993E-04 7.37000024E-04-0.00000000E+00
 INPUT CARD> 1  5 2.49999994E-05 2.49000004E-04-1.88000005E-04-2.09999998E-05-0.00000000E+00
 INPUT CARD> 2  1-4.81399987E-03 4.64006007E-01 4.55549002E-01-3.92379984E-02 7.34110028E-02
 INPUT CARD> 2  2-0.00000000E+00 2.43499991E-03-4.37999988E-04-0.00000000E+00-2.34599994E-03
 INPUT CARD> 2  3 5.12199989E-03-2.77599995E-03-4.64700023E-03-0.00000000E+00-0.00000000E+00
 INPUT CARD> 2  4 2.15387002E-01 1.34119997E-02 1.86850000E-02-3.97309996E-02-0.00000000E+00
 INPUT CARD> 2  5 1.98219996E-02 1.44870002E-02-4.23699990E-03 2.16999993E-04-0.00000000E+00
 INPUT CARD> 3  1 3.17399995E-03-1.37227997E-01-3.21851999E-01-1.92596003E-01 4.90363002E-01
 INPUT CARD> 3  2 0.00000000E+00-1.02427997E-01 2.71706998E-01 0.00000000E+00-8.68200045E-03
 INPUT CARD> 3  3 1.90490000E-02-1.03669995E-02-1.25700003E-02 0.00000000E+00 0.00000000E+00
 INPUT CARD> 3  4 3.76985013E-01 7.38129988E-02 1.90779995E-02-3.51219997E-02 0.00000000E+00
 INPUT CARD> 3  5-4.30449992E-02-5.07300012E-02 6.91600004E-03 3.97100020E-03 0.00000000E+00
 INPUT CARD> 4  1 0.00000000E+00 0.00000000E+00 0.00000000E+00 0.00000000E+00 0.00000000E+00
 INPUT CARD> 4  2 6.52872980E-01 0.00000000E+00 0.00000000E+00 4.83974010E-01 0.00000000E+00
 INPUT CARD> 4  3 0.00000000E+00 0.00000000E+00 0.00000000E+00-3.32699995E-03 1.53400004E-02
 INPUT CARD> 4  4 0.00000000E+00 0.00000000E+00 0.00000000E+00 0.00000000E+00 3.28430012E-02
 INPUT CARD> 4  5 0.00000000E+00 0.00000000E+00 0.00000000E+00 0.00000000E+00 5.52800018E-03
 INPUT CARD> 5  1-6.78100018E-03-5.36810011E-02-5.89670017E-02 3.81336004E-01 2.07850993E-01
 INPUT CARD> 5  2 0.00000000E+00 3.33896011E-01 1.83788002E-01 0.00000000E+00 2.09000008E-03
 INPUT CARD> 5  3 4.14199987E-03-6.23300020E-03 1.07349996E-02 0.00000000E+00 0.00000000E+00
 INPUT CARD> 5  4-8.90500005E-03 7.04200007E-03 1.71380006E-02 1.23589998E-02 0.00000000E+00
 INPUT CARD> 5  5 2.96813011E-01 3.46592993E-01-1.39520001E-02 1.92800001E-03 0.00000000E+00
 INPUT CARD> $END                                                                           
 INPUT CARD>                                                                                
     65536000 WORDS OF MEMORY AVAILABLE

     BASIS OPTIONS
     -------------
     GBASIS=CCD          IGAUSS=       0      POLAR=NONE    
     NDFUNC=       0     NFFUNC=       0     DIFFSP=       F
     NPFUNC=       0      DIFFS=       F     BASNAM=        


     RUN TITLE
     ---------
 Title                                                                           

 THE POINT GROUP OF THE MOLECULE IS C1      
 THE ORDER OF THE PRINCIPAL AXIS IS     0

 ATOM      ATOMIC                      COORDINATES (BOHR)
           CHARGE         X                   Y                   Z
 O           8.0    -0.1119095730       -0.1219251207        0.0000000000
 H           1.0    -0.8930845018        1.5112138724       -0.0000000000
 H           1.0     3.6144033077        0.4244324568        0.0000000000

          INTERNUCLEAR DISTANCES (ANGS.)
          ------------------------------

                1 O          2 H          3 H     

   1 O       0.0000000    0.9579975 *  1.9929629 *
   2 H       0.9579975 *  0.0000000    2.4536107 *
   3 H       1.9929629 *  2.4536107 *  0.0000000  

  * ... LESS THAN  3.000


     ATOMIC BASIS SET
     ----------------
 THE CONTRACTED PRIMITIVE FUNCTIONS HAVE BEEN UNNORMALIZED
 THE CONTRACTED BASIS FUNCTIONS ARE NOW NORMALIZED TO UNITY

  SHELL TYPE  PRIMITIVE        EXPONENT          CONTRACTION COEFFICIENT(S)

 O         

      1   S       1         11720.0000000    0.000709645947
      1   S       2          1759.0000000    0.005467272292
      1   S       3           400.8000000    0.027823118610
      1   S       4           113.7000000    0.104747739711
      1   S       5            37.0300000    0.282920846357
      1   S       6            13.2700000    0.448495238698
      1   S       7             5.0250000    0.270816885213
      1   S       8             1.0130000    0.015450291607

      2   S       9         11720.0000000   -0.000314443412
      2   S      10          1759.0000000   -0.002482137681
      2   S      11           400.8000000   -0.012316355382
      2   S      12           113.7000000   -0.050538917344
      2   S      13            37.0300000   -0.139384903316
      2   S      14            13.2700000   -0.325077494818
      2   S      15             5.0250000   -0.229848307588
      2   S      16             1.0130000    1.095379346788

      3   S      17             0.3023000    1.000000000000

      4   P      18            17.7000000    0.062679166282
      4   P      19             3.8540000    0.333536565879
      4   P      20             1.0460000    0.741239641640

      5   P      21             0.2753000    1.000000000000

      6   D      22             1.1850000    1.000000000000

 H         

      7   S      23            13.0100000    0.033498726390
      7   S      24             1.9620000    0.234800801174
      7   S      25             0.4446000    0.813682957883

      8   S      26             0.1220000    1.000000000000

      9   P      27             0.7270000    1.000000000000

 H         

     10   S      28            13.0100000    0.033498726390
     10   S      29             1.9620000    0.234800801174
     10   S      30             0.4446000    0.813682957883

     11   S      31             0.1220000    1.000000000000

     12   P      32             0.7270000    1.000000000000

 TOTAL NUMBER OF BASIS SET SHELLS             =   12
 NUMBER OF CARTESIAN GAUSSIAN BASIS FUNCTIONS =   25
 NOTE: THIS RUN WILL RESTRICT THE MO VARIATION SPACE TO SPHERICAL HARMONICS.
 THE NUMBER OF ORBITALS KEPT IN THE VARIATIONAL SPACE WILL BE PRINTED LATER.
 NUMBER OF ELECTRONS                          =   10
 CHARGE OF MOLECULE                           =    0
 SPIN MULTIPLICITY                            =    1
 NUMBER OF OCCUPIED ORBITALS (ALPHA)          =    5
 NUMBER OF OCCUPIED ORBITALS (BETA )          =    5
 TOTAL NUMBER OF ATOMS                        =    3
 THE NUCLEAR REPULSION ENERGY IS        6.7588840849

     $CONTRL OPTIONS
     ---------------
 SCFTYP=RHF          RUNTYP=ENERGY       EXETYP=RUN     
 MPLEVL=       0     CITYP =ALDET        CCTYP =NONE         VBTYP =NONE    
 DFTTYP=NONE         TDDFT =NONE    
 MULT  =       1     ICHARG=       0     NZVAR =       0     COORD =UNIQUE  
 PP    =NONE         RELWFN=NONE         LOCAL =NONE         NUMGRD=       F
 ISPHER=       1     NOSYM =       0     MAXIT =      30     UNITS =ANGS    
 PLTORB=       F     MOLPLT=       F     AIMPAC=       F     FRIEND=        
 NPRINT=       7     IREST =       0     GEOM  =INPUT   
 NORMF =       0     NORMP =       0     ITOL  =      20     ICUT  =       9
 INTTYP=BEST         GRDTYP=BEST         QMTTOL= 1.0E-06

     $SYSTEM OPTIONS
     ---------------
  REPLICATED MEMORY=    65536000 WORDS (ON EVERY NODE).
 DISTRIBUTED MEMDDI=        3750 MILLION WORDS IN AGGREGATE,
 MEMDDI DISTRIBUTED OVER   1 PROCESSORS IS  3750000000 WORDS/PROCESSOR.
 TOTAL MEMORY REQUESTED ON EACH PROCESSOR=  3815536000 WORDS.
 TIMLIM=      525600.00 MINUTES, OR     365.0 DAYS.
 PARALL= F  BALTYP=  DLB     KDIAG=    0  COREFL= F
 MXSEQ2=     300 MXSEQ3=     150  mem10=         0  mem22=         0

          ----------------
          PROPERTIES INPUT
          ----------------

     MOMENTS            FIELD           POTENTIAL          DENSITY
 IEMOM =       1   IEFLD =       0   IEPOT =       0   IEDEN =       0
 WHERE =COMASS     WHERE =NUCLEI     WHERE =NUCLEI     WHERE =NUCLEI  
 OUTPUT=BOTH       OUTPUT=BOTH       OUTPUT=BOTH       OUTPUT=BOTH    
 IEMINT=       0   IEFINT=       0                     IEDINT=       0
                                                       MORB  =       0
          EXTRAPOLATION IN EFFECT
          SOSCF IN EFFECT
 ORBITAL PRINTING OPTION: NPREO=     1    25     2     1

     -------------------------------
     INTEGRAL TRANSFORMATION OPTIONS
     -------------------------------
     NWORD  =            0
     CUTTRF = 1.0E-09     MPTRAN =       0
     DIRTRF =       T     AOINTS =DUP     

          ----------------------
          INTEGRAL INPUT OPTIONS
          ----------------------
 NOPK  =       1 NORDER=       0 SCHWRZ=       T

     ------------------------------------------
     THE POINT GROUP IS C1 , NAXIS= 0, ORDER= 1
     ------------------------------------------

 -- VARIATIONAL SPACE WILL BE RESTRICTED TO PURE SPHERICAL HARMONICS ONLY --
 AFTER EXCLUDING CONTAMINANT COMBINATIONS FROM THE CARTESIAN GAUSSIAN BASIS
 SET, THE NUMBER OF SPHERICAL HARMONICS KEPT IN THE VARIATION SPACE IS   24

     DIMENSIONS OF THE SYMMETRY SUBSPACES ARE
 A   =   24

 ..... DONE SETTING UP THE RUN .....
 STEP CPU TIME =     0.01 TOTAL CPU TIME =          0.0 (      0.0 MIN)
 TOTAL WALL CLOCK TIME=          0.0 SECONDS, CPU UTILIZATION IS    98.87%

          ********************
          1 ELECTRON INTEGRALS
          ********************
 ...... END OF ONE-ELECTRON INTEGRALS ......
 STEP CPU TIME =     0.00 TOTAL CPU TIME =          0.0 (      0.0 MIN)
 TOTAL WALL CLOCK TIME=          0.0 SECONDS, CPU UTILIZATION IS    98.81%

          -------------
          GUESS OPTIONS
          -------------
          GUESS =MOREAD            NORB  =       5          NORDER=       0
          MIX   =       F          PRTMO =       F          PUNMO =       F
          TOLZ  = 1.0E-08          TOLE  = 1.0E-05
          SYMDEN=       F          PURIFY=       F

 INITIAL GUESS ORBITALS GENERATED BY MOREAD   ROUTINE.

 STATISTICS FOR GENERATION OF SYMMETRY ORBITAL -Q- MATRIX
 NUMBER OF CARTESIAN ATOMIC ORBITALS=         25
 NUMBER OF SPHERICAL CONTAMINANTS DROPPED=     1
 NUMBER OF LINEARLY DEPENDENT MOS DROPPED=     0
 TOTAL NUMBER OF MOS IN VARIATION SPACE=      24

 SYMMETRIES FOR INITIAL GUESS ORBITALS FOLLOW.   BOTH SET(S).
     5 ORBITALS ARE OCCUPIED (    1 CORE ORBITALS).
     1=A        2=A        3=A        4=A        5=A        6=A        7=A   
     8=A        9=A       10=A       11=A       12=A       13=A       14=A   
    15=A       16=A       17=A       18=A       19=A       20=A       21=A   
    22=A       23=A       24=A   
 ...... END OF INITIAL ORBITAL SELECTION ......
 STEP CPU TIME =     0.00 TOTAL CPU TIME =          0.0 (      0.0 MIN)
 TOTAL WALL CLOCK TIME=          0.0 SECONDS, CPU UTILIZATION IS    98.86%

                    ----------------------
                    AO INTEGRAL TECHNOLOGY
                    ----------------------
     S,P,L SHELL ROTATED AXIS INTEGRALS, REPROGRAMMED BY
        KAZUYA ISHIMURA (IMS) AND JOSE SIERRA (SYNSTAR).
     S,P,D,L SHELL ROTATED AXIS INTEGRALS PROGRAMMED BY
        KAZUYA ISHIMURA (INSTITUTE FOR MOLECULAR SCIENCE).
     S,P,D,F,G SHELL TO TOTAL QUARTET ANGULAR MOMENTUM SUM 5,
        ERIC PROGRAM BY GRAHAM FLETCHER (ELORET AND NASA ADVANCED
        SUPERCOMPUTING DIVISION, AMES RESEARCH CENTER).
     S,P,D,F,G,L SHELL GENERAL RYS QUADRATURE PROGRAMMED BY
        MICHEL DUPUIS (PACIFIC NORTHWEST NATIONAL LABORATORY).

          --------------------
          2 ELECTRON INTEGRALS
          --------------------

 DIRECT SCF METHOD SKIPS INTEGRAL STORAGE ON DISK.
 DIRECT TRANSFORMATION SKIPS AO INTEGRAL STORAGE ON DISK.
  ...... END OF TWO-ELECTRON INTEGRALS .....
 STEP CPU TIME =     0.01 TOTAL CPU TIME =          0.0 (      0.0 MIN)
 TOTAL WALL CLOCK TIME=          0.0 SECONDS, CPU UTILIZATION IS    99.13%

          --------------------------
                 RHF SCF CALCULATION
          --------------------------

     NUCLEAR ENERGY =         6.7588840849
     MAXIT =   30     NPUNCH=    2
     EXTRAP=T  DAMP=F  SHIFT=F  RSTRCT=F  DIIS=F  DEM=F  SOSCF=T
     DENSITY MATRIX CONV=  2.00E-06
     SOSCF WILL OPTIMIZE      95 ORBITAL ROTATIONS, SOGTOL=   0.250
     MEMORY REQUIRED FOR RHF ITERS=     50657 WORDS.

 DIRECT SCF CALCULATION, SCHWRZ=T   FDIFF=T,  DIRTHR=  0.00E+00 NITDIR=10
 SCHWARZ INEQUALITY OVERHEAD:       325 INTEGRALS, T=        0.00

                                                                                   NONZERO     BLOCKS
 ITER EX DEM     TOTAL ENERGY        E CHANGE  DENSITY CHANGE     ORB. GRAD      INTEGRALS    SKIPPED
   1  0  0      -75.7962727192   -75.7962727192   0.000001025   0.000000000          26107          0
          ---------------START SECOND ORDER SCF---------------
   2  1  0      -75.7962727192    -0.0000000000   0.000000962   0.000000453          25760         44
   3  2  0      -75.7962727192    -0.0000000000   0.000000368   0.000000467          24727        170

          -----------------
          DENSITY CONVERGED
          -----------------
     TIME TO FORM FOCK OPERATORS=       0.0 SECONDS (       0.0 SEC/ITER)
     FOCK TIME ON FIRST ITERATION=       0.0, LAST ITERATION=       0.0
     TIME TO SOLVE SCF EQUATIONS=       0.0 SECONDS (       0.0 SEC/ITER)

 FINAL RHF ENERGY IS      -75.7962727192 AFTER   3 ITERATIONS

          ------------
          EIGENVECTORS
          ------------

                      1          2          3          4          5
                  -20.6134    -1.2824    -0.6307    -0.5048    -0.4151
                     A          A          A          A          A   
    1  O  1  S    1.000678  -0.004814   0.003174  -0.000000  -0.006781
    2  O  1  S    0.000418   0.464006  -0.137228  -0.000000  -0.053681
    3  O  1  S   -0.002750   0.455549  -0.321852  -0.000000  -0.058967
    4  O  1  X   -0.000090  -0.039238  -0.192596  -0.000000   0.381335
    5  O  1  Y    0.001560   0.073411   0.490363  -0.000000   0.207851
    6  O  1  Z   -0.000000  -0.000000   0.000000   0.652872   0.000000
    7  O  1  X   -0.000139   0.002435  -0.102428  -0.000000   0.333896
    8  O  1  Y   -0.000489  -0.000438   0.271707  -0.000000   0.183788
    9  O  1  Z   -0.000000  -0.000000   0.000000   0.483974   0.000000
   10  O  1 XX   -0.000340  -0.002346  -0.008682  -0.000000   0.002090
   11  O  1 YY    0.000227   0.005122   0.019049  -0.000000   0.004142
   12  O  1 ZZ    0.000113  -0.002776  -0.010367  -0.000000  -0.006233
   13  O  1 XY   -0.000281  -0.004647  -0.012570  -0.000000   0.010735
   14  O  1 XZ   -0.000000  -0.000000   0.000000  -0.003327   0.000000
   15  O  1 YZ   -0.000000  -0.000000   0.000000   0.015340   0.000000
   16  H  2  S   -0.000315   0.215387   0.376985  -0.000000  -0.008905
   17  H  2  S    0.000620   0.013412   0.073813  -0.000000   0.007042
   18  H  2  X   -0.000324   0.018685   0.019078  -0.000000   0.017138
   19  H  2  Y    0.000737  -0.039731  -0.035122  -0.000000   0.012359
   20  H  2  Z   -0.000000  -0.000000   0.000000   0.032843   0.000000
   21  H  3  S    0.000025   0.019822  -0.043045  -0.000000   0.296813
   22  H  3  S    0.000249   0.014487  -0.050730  -0.000000   0.346593
   23  H  3  X   -0.000188  -0.004237   0.006916  -0.000000  -0.013952
   24  H  3  Y   -0.000021   0.000217   0.003971  -0.000000   0.001928
   25  H  3  Z   -0.000000  -0.000000   0.000000   0.005528   0.000000

                      6          7          8          9         10
                   -0.0223     0.2146     0.6336     0.8311     1.1566
                     A          A          A          A          A   
    1  O  1  S    0.006470   0.042137   0.017612  -0.024824   0.065773
    2  O  1  S   -0.052752  -0.050257   0.023347  -0.135543   0.245668
    3  O  1  S   -0.180278  -0.813268  -0.143412   0.088186   0.422461
    4  O  1  X   -0.380338   0.131097   0.042033   0.133919   0.290148
    5  O  1  Y   -0.135017  -0.203271   0.056836  -0.319867  -0.612875
    6  O  1  Z   -0.000000  -0.000000  -0.000000  -0.000000   0.000000
    7  O  1  X   -0.401817   0.239572  -0.216064   0.120738  -0.611526
    8  O  1  Y   -0.142846  -0.393903  -0.016181  -0.244455   1.278309
    9  O  1  Z   -0.000000  -0.000000  -0.000000  -0.000000   0.000000
   10  O  1 XX    0.009395   0.002351  -0.008617  -0.024680  -0.012273
   11  O  1 YY   -0.007276  -0.012083  -0.000747   0.081100   0.013085
   12  O  1 ZZ   -0.002119   0.009732   0.009364  -0.056419  -0.000813
   13  O  1 XY   -0.007451   0.011622   0.000701  -0.079190  -0.004944
   14  O  1 XZ   -0.000000  -0.000000  -0.000000  -0.000000   0.000000
   15  O  1 YZ   -0.000000  -0.000000  -0.000000  -0.000000   0.000000
   16  H  2  S    0.031436   0.063692  -0.030073   1.291168  -0.686997
   17  H  2  S    0.061591   1.461349  -0.153259  -0.872035  -0.338329
   18  H  2  X   -0.019949   0.015223   0.055196  -0.126856  -0.115611
   19  H  2  Y   -0.010935  -0.028073  -0.001678   0.268348   0.313694
   20  H  2  Z   -0.000000  -0.000000  -0.000000  -0.000000   0.000000
   21  H  3  S    0.339310  -0.064476  -1.307051  -0.074684  -0.015807
   22  H  3  S    0.573302  -0.188672   1.346355   0.162312   0.136824
   23  H  3  X    0.026648  -0.005634   0.044335   0.046420   0.161052
   24  H  3  Y    0.004260   0.001379   0.003718  -0.049195   0.253679
   25  H  3  Z   -0.000000  -0.000000  -0.000000  -0.000000   0.000000

                     11         12         13         14         15
                    1.1759     1.1801     1.4611     1.4658     1.4853
                     A          A          A          A          A   
    1  O  1  S    0.000000   0.064830  -0.000000  -0.257625   0.002481
    2  O  1  S    0.000000   0.151464  -0.000000  -0.601890  -0.021119
    3  O  1  S    0.000000  -0.297183  -0.000000   0.970256  -0.204054
    4  O  1  X    0.000000   0.733481  -0.000000   0.395770  -0.117898
    5  O  1  Y    0.000000   0.410515  -0.000000   0.143525   0.152852
    6  O  1  Z   -0.925206   0.000000   0.223935  -0.000000   0.000000
    7  O  1  X    0.000000  -0.635772  -0.000000  -0.414955   0.174323
    8  O  1  Y    0.000000  -0.561468  -0.000000   0.247446  -0.500879
    9  O  1  Z    1.001032   0.000000  -0.126699  -0.000000   0.000000
   10  O  1 XX    0.000000  -0.021534  -0.000000   0.081427  -0.044198
   11  O  1 YY    0.000000   0.008242  -0.000000  -0.056673   0.052961
   12  O  1 ZZ    0.000000   0.013292  -0.000000  -0.024754  -0.008763
   13  O  1 XY    0.000000   0.003407  -0.000000  -0.036280   0.013830
   14  O  1 XZ    0.003111   0.000000   0.033055  -0.000000   0.000000
   15  O  1 YZ   -0.002284   0.000000  -0.032123  -0.000000   0.000000
   16  H  2  S    0.000000   0.122687  -0.000000  -0.201909   0.328892
   17  H  2  S    0.000000   0.130974  -0.000000  -0.443367   0.068570
   18  H  2  X    0.000000   0.076974  -0.000000  -0.642788   0.294550
   19  H  2  Y    0.000000  -0.053901  -0.000000  -0.098748   0.027546
   20  H  2  Z    0.009032   0.000000  -0.344351  -0.000000   0.000000
   21  H  3  S    0.000000   0.156913  -0.000000  -0.075860   0.038983
   22  H  3  S    0.000000   0.010926  -0.000000   0.150745  -0.065389
   23  H  3  X    0.000000   0.441259  -0.000000  -0.489160  -0.001357
   24  H  3  Y    0.000000  -0.023852  -0.000000   0.237838   0.922482
   25  H  3  Z    0.218659   0.000000   0.915259  -0.000000   0.000000

                     16         17         18         19         20
                    1.5728     1.6181     1.9498     2.4438     2.9610
                     A          A          A          A          A   
    1  O  1  S   -0.000000  -0.474789  -0.469809   0.196134   0.000000
    2  O  1  S   -0.000000  -1.096123  -1.081141   0.508181   0.000000
    3  O  1  S   -0.000000   1.735603   1.489884   0.531031   0.000000
    4  O  1  X   -0.000000   0.165525  -0.348284  -0.339077   0.000000
    5  O  1  Y   -0.000000   0.038801  -0.031694   0.694125   0.000000
    6  O  1  Z    0.061649   0.000000   0.000000   0.000000  -0.004640
    7  O  1  X   -0.000000  -0.756370   0.549909  -0.046535   0.000000
    8  O  1  Y   -0.000000   0.361415   0.409242   0.109388   0.000000
    9  O  1  Z   -0.497175   0.000000   0.000000   0.000000   0.000211
   10  O  1 XX   -0.000000  -0.041865  -0.015309   0.033659   0.000000
   11  O  1 YY   -0.000000   0.043001  -0.077910  -0.115079   0.000000
   12  O  1 ZZ   -0.000000  -0.001137   0.093219   0.081419   0.000000
   13  O  1 XY   -0.000000   0.090957  -0.043068   0.110023   0.000000
   14  O  1 XZ   -0.055312   0.000000   0.000000   0.000000   0.904486
   15  O  1 YZ    0.127876   0.000000   0.000000   0.000000   0.426182
   16  H  2  S   -0.000000  -0.462395  -0.326627  -0.521063   0.000000
   17  H  2  S   -0.000000  -0.596446  -0.212878  -0.300984   0.000000
   18  H  2  X   -0.000000   0.490418  -0.366140  -0.562173   0.000000
   19  H  2  Y   -0.000000   0.547837  -0.054337   1.161880   0.000000
   20  H  2  Z    0.961355   0.000000   0.000000   0.000000   0.003155
   21  H  3  S   -0.000000   0.049304   0.028437  -0.029200   0.000000
   22  H  3  S   -0.000000   0.045989  -0.312415   0.038180   0.000000
   23  H  3  X   -0.000000  -0.233586   0.753719   0.030229   0.000000
   24  H  3  Y   -0.000000  -0.149552   0.086467   0.014939   0.000000
   25  H  3  Z    0.341723   0.000000   0.000000   0.000000  -0.021416

                     21         22         23         24
                    2.9802     3.2989     3.3112     4.0341
                     A          A          A          A   
    1  O  1  S    0.023600  -0.006781  -0.000000   0.096756
    2  O  1  S    0.053556  -0.015267  -0.000000   0.120760
    3  O  1  S   -0.057018   0.013153  -0.000000  -1.550628
    4  O  1  X    0.043496  -0.019581  -0.000000   0.179908
    5  O  1  Y    0.007833  -0.011182  -0.000000  -0.385776
    6  O  1  Z    0.000000  -0.000000  -0.011891   0.000000
    7  O  1  X   -0.084810   0.221022  -0.000000   0.455616
    8  O  1  Y   -0.005880   0.095373  -0.000000  -0.932536
    9  O  1  Z    0.000000  -0.000000   0.215178   0.000000
   10  O  1 XX   -0.723996  -0.692648  -0.000000   0.275670
   11  O  1 YY   -0.133495   0.713436  -0.000000  -0.910466
   12  O  1 ZZ    0.857491  -0.020788  -0.000000   0.634796
   13  O  1 XY   -0.375620   0.673653  -0.000000   0.847092
   14  O  1 XZ    0.000000  -0.000000  -0.450518   0.000000
   15  O  1 YZ    0.000000  -0.000000   0.954502   0.000000
   16  H  2  S    0.004534  -0.001175  -0.000000   1.633877
   17  H  2  S   -0.026127   0.009794  -0.000000   0.313336
   18  H  2  X    0.008158  -0.496433  -0.000000   0.474105
   19  H  2  Y    0.015272  -0.243391  -0.000000  -0.991163
   20  H  2  Z    0.000000  -0.000000  -0.545327   0.000000
   21  H  3  S    0.002180  -0.020417  -0.000000   0.012225
   22  H  3  S    0.066939  -0.014654  -0.000000  -0.032887
   23  H  3  X   -0.124575   0.034443  -0.000000  -0.011714
   24  H  3  Y   -0.011777  -0.013260  -0.000000   0.040732
   25  H  3  Z    0.000000  -0.000000  -0.012392   0.000000
 ...... END OF RHF CALCULATION ......
 STEP CPU TIME =     0.01 TOTAL CPU TIME =          0.0 (      0.0 MIN)
 TOTAL WALL CLOCK TIME=          0.0 SECONDS, CPU UTILIZATION IS    99.06%

     ----------------------------------------------------------------
     PROPERTY VALUES FOR THE RHF   SELF-CONSISTENT FIELD WAVEFUNCTION
     ----------------------------------------------------------------

          -----------------
          ENERGY COMPONENTS
          -----------------

         WAVEFUNCTION NORMALIZATION =       1.0000000000

                ONE ELECTRON ENERGY =    -118.2175567303
                TWO ELECTRON ENERGY =      35.6623999261
           NUCLEAR REPULSION ENERGY =       6.7588840849
                                      ------------------
                       TOTAL ENERGY =     -75.7962727192

 ELECTRON-ELECTRON POTENTIAL ENERGY =      35.6623999261
  NUCLEUS-ELECTRON POTENTIAL ENERGY =    -193.6520411031
   NUCLEUS-NUCLEUS POTENTIAL ENERGY =       6.7588840849
                                      ------------------
             TOTAL POTENTIAL ENERGY =    -151.2307570921
               TOTAL KINETIC ENERGY =      75.4344843729
                 VIRIAL RATIO (V/T) =       2.0047960604

  ...... PI ENERGY ANALYSIS ......

 ENERGY ANALYSIS:
            FOCK ENERGY=    -46.8927434153
          BARE H ENERGY=   -118.2175567303
     ELECTRONIC ENERGY =    -82.5551500728
         KINETIC ENERGY=     75.4344843729
          N-N REPULSION=      6.7588840849
           TOTAL ENERGY=    -75.7962659878
        SIGMA PART(1+2)=    -75.0903742888
               (K,V1,2)=     70.6791869790   -174.9767962869     29.2072350191
           PI PART(1+2)=     -7.4647757840
               (K,V1,2)=      4.7552973939    -18.6752448162      6.4551716384
  SIGMA SKELETON, ERROR=    -68.3314902039     -0.0000000000
             MIXED PART= 0.00000E+00 0.00000E+00 0.00000E+00 0.00000E+00
 ...... END OF PI ENERGY ANALYSIS ......

          ---------------------------------------
          MULLIKEN AND LOWDIN POPULATION ANALYSES
          ---------------------------------------

               ----- POPULATIONS IN EACH AO -----
                             MULLIKEN      LOWDIN
              1  O  1  S      2.00133     1.90694
              2  O  1  S      0.87680     0.64127
              3  O  1  S      0.95602     0.58314
              4  O  1  X      0.56577     0.53357
              5  O  1  Y      0.87552     0.82400
              6  O  1  Z      1.17766     1.14013
              7  O  1  X      0.53811     0.57128
              8  O  1  Y      0.52605     0.63589
              9  O  1  Z      0.79792     0.79535
             10  O  1 XX      0.00153     0.19765
             11  O  1 YY      0.00254     0.20238
             12  O  1 ZZ      0.00280     0.19977
             13  O  1 XY      0.00005     0.00517
             14  O  1 XZ      0.00076     0.00000
             15  O  1 YZ      0.00000     0.00022
             16  H  2  S      0.68142     0.54927
             17  H  2  S      0.05191     0.16759
             18  H  2  X      0.01755     0.04272
             19  H  2  Y      0.04046     0.07415
             20  H  2  Z      0.02330     0.06383
             21  H  3  S      0.36957     0.37164
             22  H  3  S      0.48897     0.48735
             23  H  3  X      0.00348     0.00593
             24  H  3  Y      0.00019     0.00029
             25  H  3  Z      0.00031     0.00047

          ----- MULLIKEN ATOMIC OVERLAP POPULATIONS -----
          (OFF-DIAGONAL ELEMENTS NEED TO BE MULTIPLIED BY 2)

             1           2           3

    1    7.8368377
    2    0.3356279   0.4826070
    3    0.1503767  -0.0035834   0.7157129

          TOTAL MULLIKEN AND LOWDIN ATOMIC POPULATIONS
       ATOM         MULL.POP.    CHARGE          LOW.POP.     CHARGE
    1 O             8.322842   -0.322842         8.236752   -0.236752
    2 H             0.814651    0.185349         0.897565    0.102435
    3 H             0.862506    0.137494         0.865683    0.134317

          MULLIKEN SPHERICAL HARMONIC POPULATIONS
       ATOM           S       P       D      F      G      H      I    TOTAL
    1 O             3.83    4.48    0.01   0.00   0.00   0.00   0.00    8.32
    2 H             0.73    0.08    0.00   0.00   0.00   0.00   0.00    0.81
    3 H             0.86    0.00    0.00   0.00   0.00   0.00   0.00    0.86

          ---------------------
          ELECTROSTATIC MOMENTS
          ---------------------

 POINT   1           X           Y           Z (BOHR)    CHARGE
                 0.052893    0.000034    0.000000       -0.00 (A.U.)
         DX          DY          DZ         /D/  (DEBYE)
     0.807098    1.794354    0.000000    1.967514
 ...... END OF PROPERTY EVALUATION ......
 STEP CPU TIME =     0.00 TOTAL CPU TIME =          0.0 (      0.0 MIN)
 TOTAL WALL CLOCK TIME=          0.0 SECONDS, CPU UTILIZATION IS    99.07%

 DETERMINANT CI OPTIONS   NRNFG   NPFLG
 INTEGRAL TRANSFORMATION    1       0
 DIAGONALIZE HAMILTONIAN    1       0
 FORM 1E- DENSITY MATRIX    1       0
 FORM 2E- DENSITY MATRIX    0       0

     --------------------------------------------------
          AMES LABORATORY DETERMINANTAL FULL CI
     PROGRAM WRITTEN BY JOE IVANIC AND KLAUS RUEDENBERG
     --------------------------------------------------

 THE POINT GROUP                  =   C1      
 THE STATE SYMMETRY               =   A       
 NUMBER OF CORE ORBITALS          =    3
 NUMBER OF ACTIVE ORBITALS        =   21
 NUMBER OF ALPHA ELECTRONS        =    5 (   2 ACTIVE)
 NUMBER OF BETA ELECTRONS         =    5 (   2 ACTIVE)
 NUMBER OF OCCUPIED ORBITALS      =   24
 NUMBER OF CI STATES REQUESTED    =    1
 NUMBER OF CI STARTING VECTORS    =    1
 MAX. NO. OF CI EXPANSION VECTORS =   10
 SIZE OF INITIAL CI GUESS MATRIX  =  300
 MAX. NO. OF CI ITERS/STATE       =  100
 CI DIAGONALIZATION CRITERION     = 1.00E-06
 CI PROPERTIES WILL BE FOUND FOR ROOT NUMBER   1
 1E- DENSITY MATRIX OPTIONS ARE 1

 CORRELATION ENERGY ANALYSIS      =    F

 SYMMETRIES FOR THE   3 CORE,  21 ACTIVE ARE

     CORE= A     A     A   

   ACTIVE= A     A     A     A     A     A     A     A     A     A   
           A     A     A     A     A     A     A     A     A     A   
           A   

     --------------------------------------------
     PARTIAL TWO ELECTRON INTEGRAL TRANSFORMATION
     --------------------------------------------

 NUMBER OF CORE MOLECULAR ORBITALS     =    3
 NUMBER OF OCCUPIED MOLECULAR ORBITALS =   24
 TOTAL NUMBER OF MOLECULAR ORBITALS    =   24
 TOTAL NUMBER OF ATOMIC ORBITALS       =   25
 THRESHOLD FOR KEEPING TRANSFORMED 2E- INTEGRALS = 1.000E-09
 AO INTEGRALS WILL BE CALCULATED IN DIRECT MODE...
 EVALUATING THE FROZEN CORE ENERGY...
 ----- FROZEN CORE ENERGY =       -77.4959508825

 PLAN A: REQUIREMENTS FOR FULLY IN-MEMORY TRANSFORMATION:
 # OF WORDS AVAILABLE =             65535999
 # OF WORDS NEEDED    =               279354

 CHOOSING IN MEMORY PARTIAL TRANSFORMATION...
 DIRECT TRANSFORMATION SKIPS AO INTEGRAL STORAGE ON DISK.
 TOTAL NUMBER OF TRANSFORMED 2E- INTEGRALS KEPT =        14106
 ... END OF INTEGRAL TRANSFORMATION ...
 STEP CPU TIME =     0.01 TOTAL CPU TIME =          0.0 (      0.0 MIN)
 TOTAL WALL CLOCK TIME=          0.0 SECONDS, CPU UTILIZATION IS    99.18%

     --------------------------------------------------
          AMES LABORATORY DETERMINANTAL FULL CI
     PROGRAM WRITTEN BY JOE IVANIC AND KLAUS RUEDENBERG
     --------------------------------------------------

 THE NUMBER OF DETERMINANTS HAVING SPACE SYMMETRY A  
 IN POINT GROUP C1   WITH SZ=  0.0 IS          44100
 WHICH INCLUDES          16170 CSFS WITH S=  0.0
 WHICH INCLUDES          21945 CSFS WITH S=  1.0
 WHICH INCLUDES           5985 CSFS WITH S=  2.0
 THE DETERMINANT FULL CI REQUIRES         1186931 WORDS
 INITIAL CI VECTOR GUESS TIME  :          0.0
 INITIAL FULL CI ITERATION TIME:          0.0

 ITERATION      ENERGY           GRADIENT
     0      -75.9074799486     0.40033117
     1      -75.9455591105     0.04443359
     2      -75.9460665617     0.01643711
     3      -75.9461425176     0.00398223
     4      -75.9461474999     0.00098530
     5      -75.9461477926     0.00039882
     6      -75.9461478468     0.00014900
     7      -75.9461478542     0.00005851
     8      -75.9461478555     0.00002438
     9      -75.9461478557     0.00000962
    10      -75.9461478557     0.00000435
    11      -75.9461478557     0.00000207
    12      -75.9461478557     0.00000076

 CONVERGED STATE    1 ENERGY=      -75.9461478557 IN   12 ITERS

 ALL STATES CONVERGED.

 CI EIGENVECTORS WILL BE LABELED IN GROUP=C1      
 PRINTING CI COEFFICIENTS LARGER THAN 5.000E-02

 STATE   1  ENERGY=       -75.9461478557  S=  0.00  SZ=  0.00  SPACE SYM=A   

        ALPHA          |        BETA           | CI COEFFICIENT
-----------------------|-----------------------|---------------
 110000000000000000000 | 110000000000000000000 |   0.8829313115
 101000000000000000000 | 101000000000000000000 |  -0.4299622107
 101000000000000000000 | 100010000000000000000 |   0.0557750546
 100010000000000000000 | 101000000000000000000 |   0.0557750546
 ..... DONE WITH DETERMINANT CI COMPUTATION .....
 STEP CPU TIME =     0.31 TOTAL CPU TIME =          0.4 (      0.0 MIN)
 TOTAL WALL CLOCK TIME=          0.4 SECONDS, CPU UTILIZATION IS    99.78%

     ---------------------------
     ONE PARTICLE DENSITY MATRIX
     ---------------------------

 DENSITY MATRIX WILL BE SAVED FOR   1-TH STATE WITH S= 0.00

 CI EIGENSTATE   1 TOTAL ENERGY =      -75.9461478557

          NATURAL ORBITALS IN ATOMIC ORBITAL BASIS
          ----------------------------------------

                      1          2          3          4          5
                    2.0000     2.0000     2.0000     1.9819     1.5914
                     A          A          A          A          A   
    1  O  1  S    1.000678  -0.004814   0.003174   0.000000  -0.002170
    2  O  1  S    0.000418   0.464006  -0.137228   0.000000  -0.042643
    3  O  1  S   -0.002750   0.455549  -0.321852   0.000000  -0.067699
    4  O  1  X   -0.000090  -0.039238  -0.192596   0.000000   0.402405
    5  O  1  Y    0.001560   0.073411   0.490363   0.000000   0.215939
    6  O  1  Z   -0.000000  -0.000000   0.000000   0.650793   0.000000
    7  O  1  X   -0.000139   0.002435  -0.102428   0.000000   0.284184
    8  O  1  Y   -0.000489  -0.000438   0.271707   0.000000   0.165033
    9  O  1  Z   -0.000000  -0.000000   0.000000   0.486142   0.000000
   10  O  1 XX   -0.000340  -0.002346  -0.008682   0.000000  -0.000930
   11  O  1 YY    0.000227   0.005122   0.019049   0.000000   0.005527
   12  O  1 ZZ    0.000113  -0.002776  -0.010367   0.000000  -0.004597
   13  O  1 XY   -0.000281  -0.004647  -0.012570   0.000000   0.010036
   14  O  1 XZ   -0.000000  -0.000000   0.000000  -0.004332   0.000000
   15  O  1 YZ   -0.000000  -0.000000   0.000000   0.015048   0.000000
   16  H  2  S   -0.000315   0.215387   0.376985   0.000000  -0.001880
   17  H  2  S    0.000620   0.013412   0.073813   0.000000  -0.001841
   18  H  2  X   -0.000324   0.018685   0.019078   0.000000   0.016288
   19  H  2  Y    0.000737  -0.039731  -0.035122   0.000000   0.011590
   20  H  2  Z   -0.000000  -0.000000   0.000000   0.033097   0.000000
   21  H  3  S    0.000025   0.019822  -0.043045   0.000000   0.364194
   22  H  3  S    0.000249   0.014487  -0.050730   0.000000   0.325321
   23  H  3  X   -0.000188  -0.004237   0.006916   0.000000  -0.003224
   24  H  3  Y   -0.000021   0.000217   0.003971   0.000000   0.003400
   25  H  3  Z   -0.000000  -0.000000   0.000000   0.005330   0.000000

                      6          7          8          9         10
                    0.4041     0.0116     0.0032     0.0025     0.0018
                     A          A          A          A          A   
    1  O  1  S   -0.002351   0.000000   0.039362   0.120545   0.000000
    2  O  1  S    0.048324   0.000000   0.106971   0.358835   0.000000
    3  O  1  S    0.109806   0.000000  -0.069000  -0.066477   0.000000
    4  O  1  X    0.497834   0.000000  -0.834664  -0.040168   0.000000
    5  O  1  Y    0.173331   0.000000  -0.397217   0.190817   0.000000
    6  O  1  Z    0.000000  -0.953641   0.000000   0.000000   0.021613
    7  O  1  X    0.303169   0.000000   0.953680  -0.149226   0.000000
    8  O  1  Y    0.082049   0.000000   0.477453   0.196860   0.000000
    9  O  1  Z    0.000000   1.021027   0.000000   0.000000  -0.020912
   10  O  1 XX   -0.014289   0.000000  -0.022585  -0.467864   0.000000
   11  O  1 YY    0.008838   0.000000  -0.003551  -0.394520   0.000000
   12  O  1 ZZ    0.005452   0.000000   0.026136   0.862385   0.000000
   13  O  1 XY    0.006817   0.000000   0.016595  -0.058590   0.000000
   14  O  1 XZ    0.000000   0.019361   0.000000   0.000000   0.909595
   15  O  1 YZ    0.000000   0.009355   0.000000   0.000000   0.410134
   16  H  2  S   -0.022718   0.000000  -0.027108  -0.368268   0.000000
   17  H  2  S   -0.001138   0.000000   0.001231  -0.111654   0.000000
   18  H  2  X    0.016502   0.000000   0.045816  -0.023538   0.000000
   19  H  2  Y    0.007269   0.000000   0.024427   0.030479   0.000000
   20  H  2  Z    0.000000   0.043324   0.000000   0.000000  -0.016164
   21  H  3  S   -0.485345   0.000000  -0.230081   0.051992   0.000000
   22  H  3  S   -0.373332   0.000000  -0.051088   0.028735   0.000000
   23  H  3  X    0.004841   0.000000   0.009463   0.063181   0.000000
   24  H  3  Y   -0.003732   0.000000   0.011361   0.002914   0.000000
   25  H  3  Z    0.000000   0.029383   0.000000   0.000000   0.054281

                     11         12         13         14         15
                    0.0013     0.0007     0.0005     0.0004     0.0002
                     A          A          A          A          A   
    1  O  1  S   -0.000000   0.183594  -0.289932  -0.473697  -0.183624
    2  O  1  S   -0.000000   0.534916  -0.703288  -1.118304  -0.422638
    3  O  1  S   -0.000000  -0.113139   0.794648   1.457338   0.558728
    4  O  1  X   -0.000000  -0.101238  -0.095633  -0.013765  -0.073946
    5  O  1  Y   -0.000000   0.303008   0.092304  -0.026098   0.141206
    6  O  1  Z    0.000007   0.000000   0.000000  -0.000000  -0.000000
    7  O  1  X   -0.000000  -0.113733   0.204930  -0.193144  -0.158245
    8  O  1  Y   -0.000000   0.205506   0.040876   0.409161   0.117789
    9  O  1  Z   -0.132206   0.000000   0.000000  -0.000000  -0.000000
   10  O  1 XX   -0.000000   0.559827   0.411339  -0.188611   0.282807
   11  O  1 YY   -0.000000  -0.245742  -0.517606   0.089227  -0.211403
   12  O  1 ZZ   -0.000000  -0.314085   0.106266   0.099383  -0.071404
   13  O  1 XY   -0.000000   0.404990  -0.486780   0.464225   0.040473
   14  O  1 XZ   -0.360615   0.000000   0.000000  -0.000000  -0.000000
   15  O  1 YZ    0.824657   0.000000   0.000000  -0.000000  -0.000000
   16  H  2  S   -0.000000  -0.439417  -0.144952  -0.611978  -0.332250
   17  H  2  S   -0.000000  -0.205050   0.015748   0.066600  -0.142011
   18  H  2  X   -0.000000  -0.085086  -0.232843   0.016109   0.072242
   19  H  2  Y   -0.000000   0.020886  -0.080772   0.155061   0.077879
   20  H  2  Z    0.242131   0.000000   0.000000  -0.000000  -0.000000
   21  H  3  S   -0.000000   0.208968   0.122560   0.165465  -0.884013
   22  H  3  S   -0.000000  -0.174728  -0.274616  -0.294555   0.927344
   23  H  3  X   -0.000000  -0.184136  -0.192125  -0.195622   0.534127
   24  H  3  Y   -0.000000  -0.002707  -0.121373   0.085959   0.038012
   25  H  3  Z   -0.013323   0.000000   0.000000  -0.000000  -0.000000

                     16         17         18         19         20
                    0.0002     0.0001     0.0001     0.0000     0.0000
                     A          A          A          A          A   
    1  O  1  S   -0.166425   0.000000  -0.062313  -0.264435   0.000000
    2  O  1  S   -0.357284   0.000000  -0.092207  -0.534389   0.000000
    3  O  1  S    0.673953   0.000000   0.493491   1.088389   0.000000
    4  O  1  X   -0.379559   0.000000  -0.030871  -0.075016   0.000000
    5  O  1  Y    0.754783   0.000000   0.114079  -0.175348   0.000000
    6  O  1  Z   -0.000000   0.047943  -0.000000  -0.000000   0.025130
    7  O  1  X    0.251275   0.000000  -0.195943   0.208602   0.000000
    8  O  1  Y   -0.534442   0.000000   0.290267   0.549183   0.000000
    9  O  1  Z   -0.000000  -0.030966  -0.000000  -0.000000  -0.498124
   10  O  1 XX   -0.267573   0.000000  -0.037485   0.051592   0.000000
   11  O  1 YY    0.403547   0.000000   0.204927   0.093168   0.000000
   12  O  1 ZZ   -0.135975   0.000000  -0.167443  -0.144761   0.000000
   13  O  1 XY   -0.137376   0.000000  -0.373833  -0.096269   0.000000
   14  O  1 XZ   -0.000000  -0.091377  -0.000000  -0.000000   0.243074
   15  O  1 YZ   -0.000000   0.052887  -0.000000  -0.000000  -0.508870
   16  H  2  S   -0.202602   0.000000  -0.588993  -0.322875   0.000000
   17  H  2  S   -0.322720   0.000000  -0.136292  -0.359383   0.000000
   18  H  2  X    0.025636   0.000000  -0.020072  -0.064831   0.000000
   19  H  2  Y    0.078764   0.000000   0.122939  -0.016657   0.000000
   20  H  2  Z   -0.000000  -0.133345  -0.000000  -0.000000   1.123250
   21  H  3  S    0.035079   0.000000  -0.034016   0.738779   0.000000
   22  H  3  S   -0.077813   0.000000   0.056317  -0.915260   0.000000
   23  H  3  X   -0.021885   0.000000  -0.130189   0.754855   0.000000
   24  H  3  Y   -0.163961   0.000000   0.892300   0.027700   0.000000
   25  H  3  Z   -0.000000   0.989658  -0.000000  -0.000000   0.139607

                     21         22         23         24
                    0.0000     0.0000     0.0000     0.0000
                     A          A          A          A   
    1  O  1  S   -0.203471  -0.046014  -0.179606  -0.055016
    2  O  1  S   -0.359147  -0.079015  -0.454852  -0.034930
    3  O  1  S    1.194956   0.301757   0.050531   1.840524
    4  O  1  X    0.217636   0.102645   0.202578  -0.187905
    5  O  1  Y   -0.318243  -0.087323  -0.351993   0.437774
    6  O  1  Z    0.000000   0.000000  -0.000000  -0.000000
    7  O  1  X   -0.683703  -0.669210   0.073343  -0.474546
    8  O  1  Y    1.279253   0.113098  -0.391967   0.848137
    9  O  1  Z    0.000000   0.000000  -0.000000  -0.000000
   10  O  1 XX   -0.267033   0.326224   0.095569  -0.112819
   11  O  1 YY    0.522336  -0.279559  -0.412967   0.343789
   12  O  1 ZZ   -0.255302  -0.046665   0.317397  -0.230970
   13  O  1 XY   -0.298165  -0.433264   0.408408  -0.330969
   14  O  1 XZ    0.000000   0.000000  -0.000000  -0.000000
   15  O  1 YZ    0.000000   0.000000  -0.000000  -0.000000
   16  H  2  S   -1.068257  -0.226576   1.554729  -0.795544
   17  H  2  S   -0.720091  -0.233136  -1.191621  -1.233991
   18  H  2  X   -0.265755   0.981043   0.257692  -0.725478
   19  H  2  Y   -0.064307   0.485556  -0.548979   1.509357
   20  H  2  Z    0.000000   0.000000  -0.000000  -0.000000
   21  H  3  S   -0.287980   0.123943  -0.120209  -0.076462
   22  H  3  S    0.461268   0.025193   0.273962   0.198757
   23  H  3  X   -0.229198  -0.199556  -0.162294  -0.031220
   24  H  3  Y   -0.328015  -0.144690   0.175372  -0.009525
   25  H  3  Z    0.000000   0.000000  -0.000000  -0.000000
 ..... DONE WITH ONE PARTICLE DENSITY MATRIX .....
 STEP CPU TIME =     0.00 TOTAL CPU TIME =          0.4 (      0.0 MIN)
 TOTAL WALL CLOCK TIME=          0.4 SECONDS, CPU UTILIZATION IS    99.78%

     --------------------------------------------------------
     ALDET CI PROPERTIES...FOR THE WAVEFUNCTION OF STATE    1
               USING THE EXPECTATION VALUE DENSITY
     --------------------------------------------------------

          -----------------
          ENERGY COMPONENTS
          -----------------

         WAVEFUNCTION NORMALIZATION =       1.0000000000

                ONE ELECTRON ENERGY =    -118.0222563893
                TWO ELECTRON ENERGY =      35.3172244486
           NUCLEAR REPULSION ENERGY =       6.7588840849
                                      ------------------
                       TOTAL ENERGY =     -75.9461478557

 ELECTRON-ELECTRON POTENTIAL ENERGY =      35.3172244486
  NUCLEUS-ELECTRON POTENTIAL ENERGY =    -193.8077464656
   NUCLEUS-NUCLEUS POTENTIAL ENERGY =       6.7588840849
                                      ------------------
             TOTAL POTENTIAL ENERGY =    -151.7316379320
               TOTAL KINETIC ENERGY =      75.7854900763
                 VIRIAL RATIO (V/T) =       2.0021199016

          ---------------------------------------
          MULLIKEN AND LOWDIN POPULATION ANALYSES
          ---------------------------------------

               ----- POPULATIONS IN EACH AO -----
                             MULLIKEN      LOWDIN
              1  O  1  S      2.00132     1.90693
              2  O  1  S      0.87631     0.64128
              3  O  1  S      0.95702     0.58410
              4  O  1  X      0.61785     0.58374
              5  O  1  Y      0.86835     0.81618
              6  O  1  Z      1.16687     1.13052
              7  O  1  X      0.41538     0.45480
              8  O  1  Y      0.49432     0.60727
              9  O  1  Z      0.80205     0.79831
             10  O  1 XX      0.00350     0.19846
             11  O  1 YY      0.00311     0.20307
             12  O  1 ZZ      0.00307     0.20156
             13  O  1 XY      0.00172     0.00551
             14  O  1 XZ      0.00196     0.00165
             15  O  1 YZ      0.00000     0.00142
             16  H  2  S      0.68218     0.54975
             17  H  2  S      0.05082     0.16746
             18  H  2  X      0.01662     0.03918
             19  H  2  Y      0.03968     0.07234
             20  H  2  Z      0.02362     0.06416
             21  H  3  S      0.51679     0.50009
             22  H  3  S      0.45544     0.46721
             23  H  3  X      0.00130     0.00400
             24  H  3  Y      0.00029     0.00041
             25  H  3  Z      0.00042     0.00060

          ----- MULLIKEN ATOMIC OVERLAP POPULATIONS -----
          (OFF-DIAGONAL ELEMENTS NEED TO BE MULTIPLIED BY 2)

             1           2           3

    1    7.8067896
    2    0.3340829   0.4839709
    3    0.0719697  -0.0051357   0.9074057

          TOTAL MULLIKEN AND LOWDIN ATOMIC POPULATIONS
       ATOM         MULL.POP.    CHARGE          LOW.POP.     CHARGE
    1 O             8.212842   -0.212842         8.134801   -0.134801
    2 H             0.812918    0.187082         0.892891    0.107109
    3 H             0.974240    0.025760         0.972309    0.027691

          MULLIKEN SPHERICAL HARMONIC POPULATIONS
       ATOM           S       P       D      F      G      H      I    TOTAL
    1 O             3.83    4.36    0.01   0.00   0.00   0.00   0.00    8.21
    2 H             0.73    0.08    0.00   0.00   0.00   0.00   0.00    0.81
    3 H             0.97    0.00    0.00   0.00   0.00   0.00   0.00    0.97

          ---------------------
          ELECTROSTATIC MOMENTS
          ---------------------

 POINT   1           X           Y           Z (BOHR)    CHARGE
                 0.052893    0.000034    0.000000       -0.00 (A.U.)
         DX          DY          DZ         /D/  (DEBYE)
    -0.367053    1.663055    0.000000    1.703080
 ...... END OF PROPERTY EVALUATION ......
 STEP CPU TIME =     0.00 TOTAL CPU TIME =          0.4 (      0.0 MIN)
 TOTAL WALL CLOCK TIME=          0.4 SECONDS, CPU UTILIZATION IS    99.78%
              1187828  WORDS OF DYNAMIC MEMORY USED
 EXECUTION OF GAMESS TERMINATED NORMALLY 07:40:24 27-JUL-2025    
 DDI: 263640 bytes (0.3 MB / 0 MWords) used by master data server.

 ----------------------------------------
 CPU timing information for all processes
 ========================================
 0: 0.347 + 0.21 = 0.369
 ----------------------------------------
 ddikick.x: exited gracefully.
----- accounting info -----
Files used on the parent node dodecaedro were:
-rw-r--r-- 1 paulo paulo   21121 Jul 27 07:40 /home/paulo/gamess/restart/H2O_CISDTQ.dat
-rw-r--r-- 1 paulo paulo    2508 Jul 27 07:40 /home/paulo/gamess/restart/H2O_CISDTQ.F05
-rw-r--r-- 1 paulo paulo  181872 Jul 27 07:40 /home/paulo/gamess/restart/H2O_CISDTQ.F09
-rw-r--r-- 1 paulo paulo 1897760 Jul 27 07:40 /home/paulo/gamess/restart/H2O_CISDTQ.F10
-rw-r--r-- 1 paulo paulo  352832 Jul 27 07:40 /home/paulo/gamess/restart/H2O_CISDTQ.F12
-rw-r--r-- 1 paulo paulo  130880 Jul 27 07:40 /home/paulo/gamess/restart/H2O_CISDTQ.F26R
-rw-r--r-- 1 paulo paulo       0 Jul 27 07:40 /home/paulo/gamess/restart/H2O_CISDTQ.F27R
Sun Jul 27 07:40:25 AM WEST 2025
0.143u 0.126s 0:01.69 15.3%	0+0k 0+8io 0pf+0w
