1 : H2O_CISDTQ.inp
2 : 00
3 : 1
----- GAMESS execution script 'rungms' -----
This job is running on host dodecaedro
under operating system Linux at Tue Jul 29 11:51:12 AM WEST 2025
Available scratch disk space (Kbyte units) at beginning of the job is
Filesystem      1K-blocks       Used  Available Use% Mounted on
/dev/sdb1      5813177436 4498862060 1021272916  82% /home
GAMESS temporary binary files will be written to /home/paulo/gamess/restart
GAMESS supplementary output files will be written to /home/paulo/gamess/restart
Copying input file /home/paulo/WORK/H2O-CCD/H2O_CISDTQ.inp to your run's scratch directory...
removed '/home/paulo/gamess/restart/H2O_CISDTQ.dat'

 Distributed Data Interface kickoff program.
 Initiating 1 compute processes on 1 nodes to run the following command:
 /home/paulo/WORK/BUILD/GAMESS/Nov2023/gamess/gamess.00.x H2O_CISDTQ 

          *******************************************************
          *                                                     *
          *          GAMESS VERSION = 30 SEP 2023 (R2)          *
          *                                                     *
          *              doi.org/10.1063/5.0005188              *
          *                                                     *
          **************** 64 BIT LINUX VERSION *****************

  GAMESS HAS BEEN MADE POSSIBLE WITH IMPORTANT CONTRIBUTIONS FROM
  THE FOLLOWING INDIVIDUALS (IN ALPHABETICAL ORDER):

     IVANA ADAMOVIC, CHRISTINE AIKENS, TOMOKO AKAMA,
     MELISA ALKAN, YURI ALEXEEV, YURIKO AOKI, POOJA ARORA,
     TOSHIO ASADA, ANDREY ASADCHEV, KIM K. BALDRIDGE,
     PRADIPTA BANDYOPADHYAY, TAYLOR A. BARNES, MARIA BARYSZ,
     ROB BELL, JONATHAN BENTZ, COLLEEN BERTONI,
     JERRY A. BOATZ, BRETT BODE, KURT BRORSEN, KURT R. BRORSEN,
     LAIMUTIS BYTAUTAS, CALEB CARLIN, LAURA CARRINGTON,
     GALINA CHABAN, BENOIT CHAMPAGNE, WEI CHEN, MAHITO CHIBA,
     DAN CHIPMAN, CHEOL HO CHOI, TANNER CULPITT,
     DIPAYAN DATTA, PAUL DAY, ALBERT DEFUSCO,
     NUWAN DESILVA, J. EMILIANO DEUSTUA,
     TIM DUDLEY, MICHEL DUPUIS, STEVEN T. ELBERT,
     DMITRI FEDOROV, KATHERINE FERRERAS, MICHAEL FILATOV,
     ALEX FINDLATER,GRAHAM FLETCHER, MARK FREITAG,
     CHRISTIAN FRIEDL, DAVID GARMER, 
     IGOR S. GERASIMOV, KURT GLAESEMANN,
     MARK S. GORDON, JEFFREY R. GOUR, FENG LONG GU,
     EMILIE B. GUIDEZ, ANASTASIA GUNINA, SHARON HAMMES-SCHIFFER,
     MASATAKE HARUTA, KIMIHIKO HIRAO, YASUHIRO IKABATA,
     TZVETELIN IORDANOV, STEPHAN IRLE, KAZUYA ISHIMURA,
     JOE IVANIC, FRANK JENSEN, JAN H. JENSEN, VISVALDAS KAIRYS,
     MUNEAKI KAMIYA, MICHIO KATOUDA, NAOAKI KAWAKAMI, DAN KEMP,
     BERNARD KIRTMAN, KAZUO KITAURA, MARIUSZ KLOBUKOWSKI,
     MASATO KOBAYASHI, KONSTANTIN KOMAROV, PRAKASHAN KORAMBATH,
     JACEK KORCHOWIEC, SHIRO KOSEKI, KAROL KOWALSKI,
     JIMMY KROMANN, STANISLAW A. KUCHARSKI, HENRY KURTZ,
     SAROM SOK LEANG, SEUNGHOON LEE, HUI LI, SHUHUA LI, WEI LI,
     JESSE J. LUTZ, ALEKSANDR O. LYKHIN,
     ILIAS MAGOULAS, MARCIN MAKOWSKI,
     JOANI MATO, NIKITA MATSUNAGA, BENEDETTA MENNUCCI,
     GRANT MERRILL, NORIYUKI MINEZAWA, VLADIMIR MIRONOV,
     EISAKU MIYOSHI, JOHN A. MONTGOMERY JR., HIROTOSHI MORI,
     JONATHAN MULLIN, MONIKA MUSIAL, SHIGERU NAGASE,
     TAKESHI NAGATA, HIROMI NAKAI, TAKAHITO NAKAJIMA,
     YUYA NAKAJIMA, HARUYUKI NAKANO, HIROYA NAKATA, SEAN NEDD,
     HEATHER NETZLOFF, KIET A. NGUYEN, YOSHIO NISHIMOTO,
     BOSILJKA NJEGIC, RYAN OLSON, MIKE PAK, ROBERTO PEVERATI,
     BUU PHAM, PIOTR PIECUCH, ANNA POMOGAEVA, DAVID POOLE,
     SPENCER PRUITT, OLIVIER QUINET, LUKE ROSKOP,
     KLAUS RUEDENBERG, ANDREW SAND, TOSAPORN SATTASATHUCHANA,
     NOZOMI SAWADA, MICHAEL W. SCHMIDT, PATRICK E. SCHNEIDER,
     JUNJI SEINO, PRACHI SHARMA, JUN SHEN, JIM SHOEMAKER,
     GEORGE SCHOENDORFF, YINAN SHU, DEJUN SI, JONATHAN SKONE,
     LYUDMILA SLIPCHENKO, TONY SMITH, JIE SONG, MARK SPACKMAN,
     CASPER STEINMANN, WALT STEVENS, PEIFENG SU, SHUJUN SU,
     CHET SWALINA, CHINAMI TAKASHIMA, TETSUYA TAKETSUGU,
     ZHEN TAO, NANDUN THELLAMUREGE, SEIKEN TOKURA,
     JACOPO TOMASI, TSUGUKI TOUMA, TAKAO TSUNEDA, HIROAKI UMEDA,
     JORGE LUIS GALVEZ VALLEJO, YALI WANG, SIMON WEBB,
     AARON WEST, THERESA L. WINDUS, MARTA WLOCH,
     PENG XU, KIYOSHI YAGI, SUSUMU YANAGISAWA, YANG YANG,
     SOOHAENG YOO, TAKESHI YOSHIKAWA, FEDERICO ZAHARIEV,
     TOBY ZENG

  WHO ARE SUPPORTED BY THEIR INSTITUTION/UNIVERSITY/COMPANY/GROUP
  (IN ALPHABETICAL ORDER):

     EP ANALYTICS,
     FACULTES UNIVERSITAIRES NOTRE-DAME DE LA PAIX,
     INSTITUTE FOR MOLECULAR SCIENCE, IOWA STATE UNIVERSITY,
     JACKSON STATE UNIVERSITY, JOHANNES KEPLER UNIVERSITY LINZ,
     KYUNGPOOK NATIONAL UNIVERSITY
     KYUSHU UNIVERSITY, MICHIGAN STATE UNIVERSITY,
     MIE UNIVERSITY, THE MOLECULAR SCIENCES SOFTWARE INSTITUTE,
     MOSCOW STATE UNIVERSITY,
     N. COPERNICUS UNIVERSITY, NAGOYA UNIVERSITY,
     NANJING UNIVERSITY, NAT. INST. OF ADVANCED INDUSTRIAL
     SCIENCE AND TECHNOLOGY, NATIONAL INST. OF STANDARDS AND
     TECHNOLOGY, NESMEYANOV INSTITUTE OF ORGANOELEMENT COMPOUNDS
     OF RUSSIAN ACADEMY OF SCIENCES, OSAKA PREFECTURE UNIVERSITY,
     PENNSYLVANIA STATE UNIVERSITY, TOKYO INSTITUTE OF TECHNOLOGY,
     UNIVERSITY OF AARHUS, UNIVERSITY OF ALBERTA,
     UNIVERSITY OF CALIFORNIA AT SANTA BARBARA,
     UNIVERSITY OF COPENHAGEN, UNIVERSITY OF IOWA,
     UNIVERSITY OF MEMPHIS, UNIVERSITY OF MINNESOTA,
     UNIVERSITY OF NEBRASKA, UNIVERSITY OF NEW ENGLAND,
     UNIVERSITY OF NOTRE DAME, UNIVERSITY OF PISA,
     UNIVERSITY OF SILESIA, UNIVERSITY OF TOKYO,
     UNIVERSITY OF ZURICH, WASEDA UNIVERSITY,
     YALE UNIVERSITY

  GAMESS SOFTWARE MANAGEMENT TEAM FOR THIS RELEASE:
     MARK S. GORDON (TEAM LEAD),
     BRETT BODE (SENIOR ADVISOR),
     GIUSEPPE BARCA,
     COLLEEN BERTONI,
     KRISTOPHER KEIPERT (ADVISOR),
     SAROM S. LEANG (DEVELOPMENT LEAD),
     BUU PHAM,
     JACKSON HAYES (WEBSITE ADMINISTRATOR),
     PENG XU

 EXECUTION OF GAMESS BEGUN 11:51:12 29-JUL-2025    

            ECHO OF THE FIRST FEW INPUT CARDS -
 INPUT CARD>!   File created by MacMolPlt 7.7.3                                             
 INPUT CARD> $CONTRL SCFTYP=RHF RUNTYP=ENERGY EXETYP=RUN CITYP=ALDET MAXIT=30               
 INPUT CARD>         MULT=1 ISPHER=1                                                        
 INPUT CARD> $END                                                                           
 INPUT CARD> $SYSTEM TIMLIM=525600 MEMORY=65536000 MEMDDI=3750 $END                         
 INPUT CARD> $BASIS GBASIS=CCD $END                                                         
 INPUT CARD> $GUESS GUESS=MOREAD NORB=5 $END                                                
 INPUT CARD> $CIDET NCORE=3 NACT=21 NELS=4 $END                                             
 INPUT CARD> $SCF DIRSCF=.TRUE. $END                                                        
 INPUT CARD> $DATA                                                                          
 INPUT CARD>Title                                                                           
 INPUT CARD>C1                                                                              
 INPUT CARD>O     8.0     0.00000    -0.06564     0.00000                                   
 INPUT CARD>H     1.0    -0.75737     0.52101     0.00000                                   
 INPUT CARD>H     1.0     0.75737     0.52101     0.00000                                   
 INPUT CARD> $END                                                                           
 INPUT CARD> $VEC                                                                           
 INPUT CARD> 1  1 1.00089800E+00 1.17099995E-03-2.67000007E-03-0.00000000E+00 1.76100002E-03
 INPUT CARD> 1  2-0.00000000E+00-0.00000000E+00-4.86000004E-04-0.00000000E+00 1.13000002E-04
 INPUT CARD> 1  3 1.10000001E-05-1.23999998E-04-0.00000000E+00-0.00000000E+00-0.00000000E+00
 INPUT CARD> 1  4-2.37000000E-04 4.21000004E-04-5.69000025E-04 4.80999995E-04-0.00000000E+00
 INPUT CARD> 1  5-2.37000000E-04 4.21000004E-04 5.69000025E-04 4.80999995E-04-0.00000000E+00
 INPUT CARD> 2  1-8.18500016E-03 4.42961991E-01 3.76201987E-01-0.00000000E+00 7.87210017E-02
 INPUT CARD> 2  2-0.00000000E+00-0.00000000E+00-1.29920002E-02-0.00000000E+00 1.97999994E-03
 INPUT CARD> 2  3 1.24500005E-03-3.22500011E-03-0.00000000E+00-0.00000000E+00-0.00000000E+00
 INPUT CARD> 2  4 1.93315998E-01 1.01020001E-02 3.72769982E-02-2.04750001E-02-0.00000000E+00
 INPUT CARD> 2  5 1.93315998E-01 1.01020001E-02-3.72769982E-02-2.04750001E-02-0.00000000E+00
 INPUT CARD> 3  1-0.00000000E+00-0.00000000E+00-0.00000000E+00 4.89895999E-01-0.00000000E+00
 INPUT CARD> 3  2-0.00000000E+00 2.22139001E-01-0.00000000E+00-0.00000000E+00-0.00000000E+00
 INPUT CARD> 3  3-0.00000000E+00-0.00000000E+00 2.67869998E-02-0.00000000E+00-0.00000000E+00
 INPUT CARD> 3  4-3.27823013E-01-8.99379998E-02-2.33110003E-02 3.26620005E-02-0.00000000E+00
 INPUT CARD> 3  5 3.27823013E-01 8.99379998E-02-2.33110003E-02-3.26620005E-02-0.00000000E+00
 INPUT CARD> 4  1 2.16699997E-03-1.50379002E-01-3.49662989E-01-0.00000000E+00 5.45377016E-01
 INPUT CARD> 4  2-0.00000000E+00-0.00000000E+00 3.65321994E-01-0.00000000E+00-4.95600002E-03
 INPUT CARD> 4  3 1.78689994E-02-1.29129998E-02-0.00000000E+00-0.00000000E+00-0.00000000E+00
 INPUT CARD> 4  4 2.06447005E-01 4.04650010E-02 3.17620002E-02 7.50900013E-03-0.00000000E+00
 INPUT CARD> 4  5 2.06447005E-01 4.04650010E-02-3.17620002E-02 7.50900013E-03-0.00000000E+00
 INPUT CARD> 5  1 0.00000000E+00 0.00000000E+00 0.00000000E+00 0.00000000E+00 0.00000000E+00
 INPUT CARD> 5  2 6.31199002E-01 0.00000000E+00 0.00000000E+00 4.95680004E-01 0.00000000E+00
 INPUT CARD> 5  3 0.00000000E+00 0.00000000E+00 0.00000000E+00 0.00000000E+00 1.81990005E-02
 INPUT CARD> 5  4 0.00000000E+00 0.00000000E+00 0.00000000E+00 0.00000000E+00 3.10520008E-02
 INPUT CARD> 5  5 0.00000000E+00 0.00000000E+00 0.00000000E+00 0.00000000E+00 3.10520008E-02
 INPUT CARD> $END                                                                           
     65536000 WORDS OF MEMORY AVAILABLE

     BASIS OPTIONS
     -------------
     GBASIS=CCD          IGAUSS=       0      POLAR=NONE    
     NDFUNC=       0     NFFUNC=       0     DIFFSP=       F
     NPFUNC=       0      DIFFS=       F     BASNAM=        


     RUN TITLE
     ---------
 Title                                                                           

 THE POINT GROUP OF THE MOLECULE IS C1      
 THE ORDER OF THE PRINCIPAL AXIS IS     0

 ATOM      ATOMIC                      COORDINATES (BOHR)
           CHARGE         X                   Y                   Z
 O           8.0     0.0000000000       -0.1240416138        0.0000000000
 H           1.0    -1.4312217713        0.9845661369        0.0000000000
 H           1.0     1.4312217713        0.9845661369        0.0000000000

          INTERNUCLEAR DISTANCES (ANGS.)
          ------------------------------

                1 O          2 H          3 H     

   1 O       0.0000000    0.9580018 *  0.9580018 *
   2 H       0.9580018 *  0.0000000    1.5147400 *
   3 H       0.9580018 *  1.5147400 *  0.0000000  

  * ... LESS THAN  3.000


     ATOMIC BASIS SET
     ----------------
 THE CONTRACTED PRIMITIVE FUNCTIONS HAVE BEEN UNNORMALIZED
 THE CONTRACTED BASIS FUNCTIONS ARE NOW NORMALIZED TO UNITY

  SHELL TYPE  PRIMITIVE        EXPONENT          CONTRACTION COEFFICIENT(S)

 O         

      1   S       1         11720.0000000    0.000709645947
      1   S       2          1759.0000000    0.005467272292
      1   S       3           400.8000000    0.027823118610
      1   S       4           113.7000000    0.104747739711
      1   S       5            37.0300000    0.282920846357
      1   S       6            13.2700000    0.448495238698
      1   S       7             5.0250000    0.270816885213
      1   S       8             1.0130000    0.015450291607

      2   S       9         11720.0000000   -0.000314443412
      2   S      10          1759.0000000   -0.002482137681
      2   S      11           400.8000000   -0.012316355382
      2   S      12           113.7000000   -0.050538917344
      2   S      13            37.0300000   -0.139384903316
      2   S      14            13.2700000   -0.325077494818
      2   S      15             5.0250000   -0.229848307588
      2   S      16             1.0130000    1.095379346788

      3   S      17             0.3023000    1.000000000000

      4   P      18            17.7000000    0.062679166282
      4   P      19             3.8540000    0.333536565879
      4   P      20             1.0460000    0.741239641640

      5   P      21             0.2753000    1.000000000000

      6   D      22             1.1850000    1.000000000000

 H         

      7   S      23            13.0100000    0.033498726390
      7   S      24             1.9620000    0.234800801174
      7   S      25             0.4446000    0.813682957883

      8   S      26             0.1220000    1.000000000000

      9   P      27             0.7270000    1.000000000000

 H         

     10   S      28            13.0100000    0.033498726390
     10   S      29             1.9620000    0.234800801174
     10   S      30             0.4446000    0.813682957883

     11   S      31             0.1220000    1.000000000000

     12   P      32             0.7270000    1.000000000000

 TOTAL NUMBER OF BASIS SET SHELLS             =   12
 NUMBER OF CARTESIAN GAUSSIAN BASIS FUNCTIONS =   25
 NOTE: THIS RUN WILL RESTRICT THE MO VARIATION SPACE TO SPHERICAL HARMONICS.
 THE NUMBER OF ORBITALS KEPT IN THE VARIATIONAL SPACE WILL BE PRINTED LATER.
 NUMBER OF ELECTRONS                          =   10
 CHARGE OF MOLECULE                           =    0
 SPIN MULTIPLICITY                            =    1
 NUMBER OF OCCUPIED ORBITALS (ALPHA)          =    5
 NUMBER OF OCCUPIED ORBITALS (BETA )          =    5
 TOTAL NUMBER OF ATOMS                        =    3
 THE NUCLEAR REPULSION ENERGY IS        9.1873682166

     $CONTRL OPTIONS
     ---------------
 SCFTYP=RHF          RUNTYP=ENERGY       EXETYP=RUN     
 MPLEVL=       0     CITYP =ALDET        CCTYP =NONE         VBTYP =NONE    
 DFTTYP=NONE         TDDFT =NONE    
 MULT  =       1     ICHARG=       0     NZVAR =       0     COORD =UNIQUE  
 PP    =NONE         RELWFN=NONE         LOCAL =NONE         NUMGRD=       F
 ISPHER=       1     NOSYM =       0     MAXIT =      30     UNITS =ANGS    
 PLTORB=       F     MOLPLT=       F     AIMPAC=       F     FRIEND=        
 NPRINT=       7     IREST =       0     GEOM  =INPUT   
 NORMF =       0     NORMP =       0     ITOL  =      20     ICUT  =       9
 INTTYP=BEST         GRDTYP=BEST         QMTTOL= 1.0E-06

     $SYSTEM OPTIONS
     ---------------
  REPLICATED MEMORY=    65536000 WORDS (ON EVERY NODE).
 DISTRIBUTED MEMDDI=        3750 MILLION WORDS IN AGGREGATE,
 MEMDDI DISTRIBUTED OVER   1 PROCESSORS IS  3750000000 WORDS/PROCESSOR.
 TOTAL MEMORY REQUESTED ON EACH PROCESSOR=  3815536000 WORDS.
 TIMLIM=      525600.00 MINUTES, OR     365.0 DAYS.
 PARALL= F  BALTYP=  DLB     KDIAG=    0  COREFL= F
 MXSEQ2=     300 MXSEQ3=     150  mem10=         0  mem22=         0

          ----------------
          PROPERTIES INPUT
          ----------------

     MOMENTS            FIELD           POTENTIAL          DENSITY
 IEMOM =       1   IEFLD =       0   IEPOT =       0   IEDEN =       0
 WHERE =COMASS     WHERE =NUCLEI     WHERE =NUCLEI     WHERE =NUCLEI  
 OUTPUT=BOTH       OUTPUT=BOTH       OUTPUT=BOTH       OUTPUT=BOTH    
 IEMINT=       0   IEFINT=       0                     IEDINT=       0
                                                       MORB  =       0
          EXTRAPOLATION IN EFFECT
          SOSCF IN EFFECT
 ORBITAL PRINTING OPTION: NPREO=     1    25     2     1

     -------------------------------
     INTEGRAL TRANSFORMATION OPTIONS
     -------------------------------
     NWORD  =            0
     CUTTRF = 1.0E-09     MPTRAN =       0
     DIRTRF =       T     AOINTS =DUP     

          ----------------------
          INTEGRAL INPUT OPTIONS
          ----------------------
 NOPK  =       1 NORDER=       0 SCHWRZ=       T

     ------------------------------------------
     THE POINT GROUP IS C1 , NAXIS= 0, ORDER= 1
     ------------------------------------------

 -- VARIATIONAL SPACE WILL BE RESTRICTED TO PURE SPHERICAL HARMONICS ONLY --
 AFTER EXCLUDING CONTAMINANT COMBINATIONS FROM THE CARTESIAN GAUSSIAN BASIS
 SET, THE NUMBER OF SPHERICAL HARMONICS KEPT IN THE VARIATION SPACE IS   24

     DIMENSIONS OF THE SYMMETRY SUBSPACES ARE
 A   =   24

 ..... DONE SETTING UP THE RUN .....
 STEP CPU TIME =     0.02 TOTAL CPU TIME =          0.0 (      0.0 MIN)
 TOTAL WALL CLOCK TIME=          0.0 SECONDS, CPU UTILIZATION IS    98.79%

          ********************
          1 ELECTRON INTEGRALS
          ********************
 ...... END OF ONE-ELECTRON INTEGRALS ......
 STEP CPU TIME =     0.00 TOTAL CPU TIME =          0.0 (      0.0 MIN)
 TOTAL WALL CLOCK TIME=          0.0 SECONDS, CPU UTILIZATION IS    98.79%

          -------------
          GUESS OPTIONS
          -------------
          GUESS =MOREAD            NORB  =       5          NORDER=       0
          MIX   =       F          PRTMO =       F          PUNMO =       F
          TOLZ  = 1.0E-08          TOLE  = 1.0E-05
          SYMDEN=       F          PURIFY=       F

 INITIAL GUESS ORBITALS GENERATED BY MOREAD   ROUTINE.

 STATISTICS FOR GENERATION OF SYMMETRY ORBITAL -Q- MATRIX
 NUMBER OF CARTESIAN ATOMIC ORBITALS=         25
 NUMBER OF SPHERICAL CONTAMINANTS DROPPED=     1
 NUMBER OF LINEARLY DEPENDENT MOS DROPPED=     0
 TOTAL NUMBER OF MOS IN VARIATION SPACE=      24

 SYMMETRIES FOR INITIAL GUESS ORBITALS FOLLOW.   BOTH SET(S).
     5 ORBITALS ARE OCCUPIED (    1 CORE ORBITALS).
     1=A        2=A        3=A        4=A        5=A        6=A        7=A   
     8=A        9=A       10=A       11=A       12=A       13=A       14=A   
    15=A       16=A       17=A       18=A       19=A       20=A       21=A   
    22=A       23=A       24=A   
 ...... END OF INITIAL ORBITAL SELECTION ......
 STEP CPU TIME =     0.00 TOTAL CPU TIME =          0.0 (      0.0 MIN)
 TOTAL WALL CLOCK TIME=          0.0 SECONDS, CPU UTILIZATION IS    98.78%

                    ----------------------
                    AO INTEGRAL TECHNOLOGY
                    ----------------------
     S,P,L SHELL ROTATED AXIS INTEGRALS, REPROGRAMMED BY
        KAZUYA ISHIMURA (IMS) AND JOSE SIERRA (SYNSTAR).
     S,P,D,L SHELL ROTATED AXIS INTEGRALS PROGRAMMED BY
        KAZUYA ISHIMURA (INSTITUTE FOR MOLECULAR SCIENCE).
     S,P,D,F,G SHELL TO TOTAL QUARTET ANGULAR MOMENTUM SUM 5,
        ERIC PROGRAM BY GRAHAM FLETCHER (ELORET AND NASA ADVANCED
        SUPERCOMPUTING DIVISION, AMES RESEARCH CENTER).
     S,P,D,F,G,L SHELL GENERAL RYS QUADRATURE PROGRAMMED BY
        MICHEL DUPUIS (PACIFIC NORTHWEST NATIONAL LABORATORY).

          --------------------
          2 ELECTRON INTEGRALS
          --------------------

 DIRECT SCF METHOD SKIPS INTEGRAL STORAGE ON DISK.
 DIRECT TRANSFORMATION SKIPS AO INTEGRAL STORAGE ON DISK.
  ...... END OF TWO-ELECTRON INTEGRALS .....
 STEP CPU TIME =     0.00 TOTAL CPU TIME =          0.0 (      0.0 MIN)
 TOTAL WALL CLOCK TIME=          0.0 SECONDS, CPU UTILIZATION IS    98.91%

          --------------------------
                 RHF SCF CALCULATION
          --------------------------

     NUCLEAR ENERGY =         9.1873682166
     MAXIT =   30     NPUNCH=    2
     EXTRAP=T  DAMP=F  SHIFT=F  RSTRCT=F  DIIS=F  DEM=F  SOSCF=T
     DENSITY MATRIX CONV=  2.00E-06
     SOSCF WILL OPTIMIZE      95 ORBITAL ROTATIONS, SOGTOL=   0.250
     MEMORY REQUIRED FOR RHF ITERS=     50657 WORDS.

 DIRECT SCF CALCULATION, SCHWRZ=T   FDIFF=T,  DIRTHR=  0.00E+00 NITDIR=10
 SCHWARZ INEQUALITY OVERHEAD:       325 INTEGRALS, T=        0.00

                                                                                   NONZERO     BLOCKS
 ITER EX DEM     TOTAL ENERGY        E CHANGE  DENSITY CHANGE     ORB. GRAD      INTEGRALS    SKIPPED
   1  0  0      -76.0267610000   -76.0267610000   0.000001113   0.000000000          25620          0
          ---------------START SECOND ORDER SCF---------------
   2  1  0      -76.0267610000    -0.0000000000   0.000000690   0.000000476          25620          0
   3  2  0      -76.0267610000    -0.0000000000   0.000000191   0.000000198          25620          0

          -----------------
          DENSITY CONVERGED
          -----------------
     TIME TO FORM FOCK OPERATORS=       0.0 SECONDS (       0.0 SEC/ITER)
     FOCK TIME ON FIRST ITERATION=       0.0, LAST ITERATION=       0.0
     TIME TO SOLVE SCF EQUATIONS=       0.0 SECONDS (       0.0 SEC/ITER)

 FINAL RHF ENERGY IS      -76.0267610000 AFTER   3 ITERATIONS

          ------------
          EIGENVECTORS
          ------------

                      1          2          3          4          5
                  -20.5506    -1.3363    -0.6988    -0.5665    -0.4931
                     A          A          A          A          A   
    1  O  1  S    1.000898  -0.008185  -0.000000   0.002167  -0.000000
    2  O  1  S    0.001171   0.442962  -0.000000  -0.150379  -0.000000
    3  O  1  S   -0.002670   0.376202  -0.000000  -0.349663  -0.000000
    4  O  1  X   -0.000000  -0.000000   0.489896  -0.000000  -0.000000
    5  O  1  Y    0.001761   0.078721  -0.000000   0.545377  -0.000000
    6  O  1  Z   -0.000000  -0.000000  -0.000000  -0.000000   0.631199
    7  O  1  X   -0.000000  -0.000000   0.222139  -0.000000  -0.000000
    8  O  1  Y   -0.000486  -0.012992  -0.000000   0.365322  -0.000000
    9  O  1  Z   -0.000000  -0.000000  -0.000000  -0.000000   0.495679
   10  O  1 XX    0.000113   0.001980  -0.000000  -0.004956  -0.000000
   11  O  1 YY    0.000011   0.001245  -0.000000   0.017869  -0.000000
   12  O  1 ZZ   -0.000124  -0.003225  -0.000000  -0.012913  -0.000000
   13  O  1 XY   -0.000000  -0.000000   0.026787  -0.000000  -0.000000
   14  O  1 XZ   -0.000000  -0.000000  -0.000000  -0.000000  -0.000000
   15  O  1 YZ   -0.000000  -0.000000  -0.000000  -0.000000   0.018199
   16  H  2  S   -0.000237   0.193316  -0.327823   0.206447  -0.000000
   17  H  2  S    0.000421   0.010102  -0.089938   0.040465  -0.000000
   18  H  2  X   -0.000569   0.037277  -0.023311   0.031762  -0.000000
   19  H  2  Y    0.000481  -0.020475   0.032662   0.007509  -0.000000
   20  H  2  Z   -0.000000  -0.000000  -0.000000  -0.000000   0.031052
   21  H  3  S   -0.000237   0.193316   0.327823   0.206447  -0.000000
   22  H  3  S    0.000421   0.010102   0.089938   0.040465  -0.000000
   23  H  3  X    0.000569  -0.037277  -0.023311  -0.031762  -0.000000
   24  H  3  Y    0.000481  -0.020475  -0.032662   0.007509  -0.000000
   25  H  3  Z   -0.000000  -0.000000  -0.000000  -0.000000   0.031052

                      6          7          8          9         10
                    0.1854     0.2561     0.7887     0.8538     1.1636
                     A          A          A          A          A   
    1  O  1  S   -0.052051   0.000000   0.000000  -0.065334   0.003230
    2  O  1  S    0.072600   0.000000   0.000000  -0.256081   0.114917
    3  O  1  S    1.001985   0.000000   0.000000   0.320232   0.747223
    4  O  1  X   -0.000000   0.283391  -0.268059  -0.000000   0.000000
    5  O  1  Y    0.190790   0.000000   0.000000  -0.329422  -0.754486
    6  O  1  Z   -0.000000   0.000000   0.000000  -0.000000   0.000000
    7  O  1  X   -0.000000   0.670942  -0.460002  -0.000000   0.000000
    8  O  1  Y    0.337337   0.000000   0.000000   0.009535   1.278292
    9  O  1  Z   -0.000000   0.000000   0.000000  -0.000000   0.000000
   10  O  1 XX    0.004847   0.000000   0.000000   0.092126  -0.012287
   11  O  1 YY    0.007537   0.000000   0.000000   0.000980   0.012850
   12  O  1 ZZ   -0.012383   0.000000   0.000000  -0.093106  -0.000563
   13  O  1 XY   -0.000000   0.021208   0.111665  -0.000000   0.000000
   14  O  1 XZ   -0.000000   0.000000   0.000000  -0.000000   0.000000
   15  O  1 YZ   -0.000000   0.000000   0.000000  -0.000000   0.000000
   16  H  2  S   -0.059062   0.026129  -0.944267   0.787914  -0.545988
   17  H  2  S   -0.828977   1.443232   0.687296  -0.548202  -0.112932
   18  H  2  X   -0.017496   0.020784   0.073808  -0.295576  -0.084050
   19  H  2  Y    0.016301  -0.017098  -0.152639   0.059279   0.251260
   20  H  2  Z   -0.000000   0.000000   0.000000  -0.000000   0.000000
   21  H  3  S   -0.059062  -0.026129   0.944267   0.787914  -0.545988
   22  H  3  S   -0.828977  -1.443232  -0.687296  -0.548202  -0.112932
   23  H  3  X    0.017496   0.020784   0.073808   0.295576   0.084050
   24  H  3  Y    0.016301   0.017098   0.152639   0.059279   0.251260
   25  H  3  Z   -0.000000   0.000000   0.000000  -0.000000   0.000000

                     11         12         13         14         15
                    1.2004     1.2534     1.4444     1.4762     1.6743
                     A          A          A          A          A   
    1  O  1  S    0.000000  -0.000000   0.201747  -0.000000  -0.000000
    2  O  1  S    0.000000  -0.000000   0.528735  -0.000000  -0.000000
    3  O  1  S    0.000000  -0.000000  -0.504701  -0.000000  -0.000000
    4  O  1  X    0.000000  -0.734456  -0.000000  -0.000000  -0.000000
    5  O  1  Y    0.000000  -0.000000  -0.132873  -0.000000  -0.000000
    6  O  1  Z   -0.967829  -0.000000  -0.000000  -0.000000  -0.018935
    7  O  1  X    0.000000   1.763415  -0.000000  -0.000000  -0.000000
    8  O  1  Y    0.000000  -0.000000   0.740611  -0.000000  -0.000000
    9  O  1  Z    1.024637  -0.000000  -0.000000  -0.000000  -0.634048
   10  O  1 XX    0.000000  -0.000000   0.062931  -0.000000  -0.000000
   11  O  1 YY    0.000000  -0.000000  -0.117379  -0.000000  -0.000000
   12  O  1 ZZ    0.000000  -0.000000   0.054448  -0.000000  -0.000000
   13  O  1 XY    0.000000   0.044422  -0.000000  -0.000000  -0.000000
   14  O  1 XZ    0.000000  -0.000000  -0.000000  -0.131376  -0.000000
   15  O  1 YZ   -0.003474  -0.000000  -0.000000  -0.000000   0.160825
   16  H  2  S    0.000000   0.378918  -0.333802  -0.000000  -0.000000
   17  H  2  S    0.000000   0.824477   0.209114  -0.000000  -0.000000
   18  H  2  X    0.000000   0.302682  -0.330066  -0.000000  -0.000000
   19  H  2  Y    0.000000  -0.186543  -0.544957  -0.000000  -0.000000
   20  H  2  Z    0.008821  -0.000000  -0.000000   0.685573   0.766921
   21  H  3  S    0.000000  -0.378918  -0.333802  -0.000000  -0.000000
   22  H  3  S    0.000000  -0.824477   0.209114  -0.000000  -0.000000
   23  H  3  X    0.000000   0.302682   0.330066  -0.000000  -0.000000
   24  H  3  Y    0.000000   0.186543  -0.544957  -0.000000  -0.000000
   25  H  3  Z    0.008821  -0.000000  -0.000000  -0.685573   0.766921

                     16         17         18         19         20
                    1.8674     1.9343     2.4510     2.4886     3.2852
                     A          A          A          A          A   
    1  O  1  S   -0.724731   0.000000  -0.000000   0.276984  -0.000000
    2  O  1  S   -1.593800   0.000000  -0.000000   0.726583  -0.000000
    3  O  1  S    3.033442   0.000000  -0.000000   0.793975  -0.000000
    4  O  1  X   -0.000000  -0.010438   0.838394   0.000000  -0.000000
    5  O  1  Y    0.108945   0.000000  -0.000000   0.669145  -0.000000
    6  O  1  Z   -0.000000   0.000000  -0.000000   0.000000  -0.011780
    7  O  1  X   -0.000000   0.901015   0.152301   0.000000  -0.000000
    8  O  1  Y    0.967811   0.000000  -0.000000   0.180208  -0.000000
    9  O  1  Z   -0.000000   0.000000  -0.000000   0.000000   0.311280
   10  O  1 XX   -0.036626   0.000000  -0.000000  -0.161503  -0.000000
   11  O  1 YY   -0.114140   0.000000  -0.000000  -0.053021  -0.000000
   12  O  1 ZZ    0.150766   0.000000  -0.000000   0.214523  -0.000000
   13  O  1 XY   -0.000000  -0.029343  -0.138238   0.000000  -0.000000
   14  O  1 XZ   -0.000000   0.000000  -0.000000   0.000000  -0.000000
   15  O  1 YZ   -0.000000   0.000000  -0.000000   0.000000   1.042651
   16  H  2  S   -0.827786   0.387352   0.294323  -0.478207  -0.000000
   17  H  2  S   -0.387848   0.091469   0.330096  -0.159114  -0.000000
   18  H  2  X   -0.372786  -0.471383   0.724188  -0.744359  -0.000000
   19  H  2  Y   -0.022892  -0.693248  -0.554676   0.537041  -0.000000
   20  H  2  Z   -0.000000   0.000000  -0.000000   0.000000  -0.397975
   21  H  3  S   -0.827786  -0.387352  -0.294323  -0.478207  -0.000000
   22  H  3  S   -0.387848  -0.091469  -0.330096  -0.159114  -0.000000
   23  H  3  X    0.372786  -0.471383   0.724188   0.744359  -0.000000
   24  H  3  Y   -0.022892   0.693248   0.554676   0.537041  -0.000000
   25  H  3  Z   -0.000000   0.000000  -0.000000   0.000000  -0.397975

                     21         22         23         24
                    3.3381     3.5097     3.8648     4.1469
                     A          A          A          A   
    1  O  1  S   -0.000000  -0.084171  -0.143702  -0.000000
    2  O  1  S   -0.000000  -0.154160  -0.177745  -0.000000
    3  O  1  S   -0.000000   0.557341   2.267181  -0.000000
    4  O  1  X   -0.000000   0.000000   0.000000   0.467660
    5  O  1  Y   -0.000000   0.018775   0.403975  -0.000000
    6  O  1  Z   -0.000000   0.000000   0.000000  -0.000000
    7  O  1  X   -0.000000   0.000000   0.000000   1.143536
    8  O  1  Y   -0.000000   0.537260   0.921753  -0.000000
    9  O  1  Z   -0.000000   0.000000   0.000000  -0.000000
   10  O  1 XX   -0.000000  -0.694837   0.936180  -0.000000
   11  O  1 YY   -0.000000   1.084201   0.135899  -0.000000
   12  O  1 ZZ   -0.000000  -0.389364  -1.072079  -0.000000
   13  O  1 XY   -0.000000   0.000000   0.000000   1.325302
   14  O  1 XZ    1.065963   0.000000   0.000000  -0.000000
   15  O  1 YZ   -0.000000   0.000000   0.000000  -0.000000
   16  H  2  S   -0.000000  -0.305777  -1.236643   1.084644
   17  H  2  S   -0.000000  -0.037754  -0.191735   0.288383
   18  H  2  X   -0.000000  -0.352212  -0.620413   0.605502
   19  H  2  Y   -0.000000  -0.314969   0.492922  -0.493701
   20  H  2  Z    0.371046   0.000000   0.000000  -0.000000
   21  H  3  S   -0.000000  -0.305777  -1.236643  -1.084644
   22  H  3  S   -0.000000  -0.037754  -0.191735  -0.288383
   23  H  3  X   -0.000000   0.352212   0.620413   0.605502
   24  H  3  Y   -0.000000  -0.314969   0.492922   0.493701
   25  H  3  Z   -0.371046   0.000000   0.000000  -0.000000
 ...... END OF RHF CALCULATION ......
 STEP CPU TIME =     0.01 TOTAL CPU TIME =          0.0 (      0.0 MIN)
 TOTAL WALL CLOCK TIME=          0.0 SECONDS, CPU UTILIZATION IS    99.13%

     ----------------------------------------------------------------
     PROPERTY VALUES FOR THE RHF   SELF-CONSISTENT FIELD WAVEFUNCTION
     ----------------------------------------------------------------

          -----------------
          ENERGY COMPONENTS
          -----------------

         WAVEFUNCTION NORMALIZATION =       1.0000000000

                ONE ELECTRON ENERGY =    -123.1375601715
                TWO ELECTRON ENERGY =      37.9234309548
           NUCLEAR REPULSION ENERGY =       9.1873682166
                                      ------------------
                       TOTAL ENERGY =     -76.0267610000

 ELECTRON-ELECTRON POTENTIAL ENERGY =      37.9234309548
  NUCLEUS-ELECTRON POTENTIAL ENERGY =    -199.1234287893
   NUCLEUS-NUCLEUS POTENTIAL ENERGY =       9.1873682166
                                      ------------------
             TOTAL POTENTIAL ENERGY =    -152.0126296179
               TOTAL KINETIC ENERGY =      75.9858686179
                 VIRIAL RATIO (V/T) =       2.0005381577

  ...... PI ENERGY ANALYSIS ......

 ENERGY ANALYSIS:
            FOCK ENERGY=    -47.2907025242
          BARE H ENERGY=   -123.1375601715
     ELECTRONIC ENERGY =    -85.2141313478
         KINETIC ENERGY=     75.9858686179
          N-N REPULSION=      9.1873682166
           TOTAL ENERGY=    -76.0267631312
        SIGMA PART(1+2)=    -77.6236727873
               (K,V1,2)=     71.4285339418   -180.3713872583     31.3191805292
           PI PART(1+2)=     -7.5904585605
               (K,V1,2)=      4.5573346761    -18.7520415311      6.6042482945
  SIGMA SKELETON, ERROR=    -68.4363045707     -0.0000000000
             MIXED PART= 0.00000E+00 0.00000E+00 0.00000E+00 0.00000E+00
 ...... END OF PI ENERGY ANALYSIS ......

          ---------------------------------------
          MULLIKEN AND LOWDIN POPULATION ANALYSES
          ---------------------------------------

               ----- POPULATIONS IN EACH AO -----
                             MULLIKEN      LOWDIN
              1  O  1  S      2.00176     1.90126
              2  O  1  S      0.83277     0.59257
              3  O  1  S      0.82353     0.50047
              4  O  1  X      0.77232     0.70073
              5  O  1  Y      0.92252     0.87350
              6  O  1  Z      1.12582     1.08251
              7  O  1  X      0.38158     0.53180
              8  O  1  Y      0.60460     0.69016
              9  O  1  Z      0.82916     0.79084
             10  O  1 XX      0.00204     0.18532
             11  O  1 YY      0.00018     0.17767
             12  O  1 ZZ      0.00893     0.17467
             13  O  1 XY      0.00000     0.01789
             14  O  1 XZ      0.00110     0.00000
             15  O  1 YZ      0.00000     0.00024
             16  H  2  S      0.69024     0.55178
             17  H  2  S      0.07000     0.16098
             18  H  2  X      0.03799     0.05773
             19  H  2  Y      0.02664     0.05650
             20  H  2  Z      0.02196     0.06321
             21  H  3  S      0.69024     0.55178
             22  H  3  S      0.07000     0.16098
             23  H  3  X      0.03799     0.05773
             24  H  3  Y      0.02664     0.05650
             25  H  3  Z      0.02196     0.06321

          ----- MULLIKEN ATOMIC OVERLAP POPULATIONS -----
          (OFF-DIAGONAL ELEMENTS NEED TO BE MULTIPLIED BY 2)

             1           2           3

    1    7.5749023
    2    0.3657091   0.5144763
    3    0.3657091  -0.0333457   0.5144763

          TOTAL MULLIKEN AND LOWDIN ATOMIC POPULATIONS
       ATOM         MULL.POP.    CHARGE          LOW.POP.     CHARGE
    1 O             8.306321   -0.306321         8.219603   -0.219603
    2 H             0.846840    0.153160         0.890198    0.109802
    3 H             0.846840    0.153160         0.890198    0.109802

          MULLIKEN SPHERICAL HARMONIC POPULATIONS
       ATOM           S       P       D      F      G      H      I    TOTAL
    1 O             3.66    4.64    0.01   0.00   0.00   0.00   0.00    8.31
    2 H             0.76    0.09    0.00   0.00   0.00   0.00   0.00    0.85
    3 H             0.76    0.09    0.00   0.00   0.00   0.00   0.00    0.85

          ---------------------
          ELECTROSTATIC MOMENTS
          ---------------------

 POINT   1           X           Y           Z (BOHR)    CHARGE
                 0.000000    0.000028    0.000000        0.00 (A.U.)
         DX          DY          DZ         /D/  (DEBYE)
    -0.000000    2.057620    0.000000    2.057620
 ...... END OF PROPERTY EVALUATION ......
 STEP CPU TIME =     0.00 TOTAL CPU TIME =          0.0 (      0.0 MIN)
 TOTAL WALL CLOCK TIME=          0.0 SECONDS, CPU UTILIZATION IS    99.15%

 DETERMINANT CI OPTIONS   NRNFG   NPFLG
 INTEGRAL TRANSFORMATION    1       0
 DIAGONALIZE HAMILTONIAN    1       0
 FORM 1E- DENSITY MATRIX    1       0
 FORM 2E- DENSITY MATRIX    0       0

     --------------------------------------------------
          AMES LABORATORY DETERMINANTAL FULL CI
     PROGRAM WRITTEN BY JOE IVANIC AND KLAUS RUEDENBERG
     --------------------------------------------------

 THE POINT GROUP                  =   C1      
 THE STATE SYMMETRY               =   A       
 NUMBER OF CORE ORBITALS          =    3
 NUMBER OF ACTIVE ORBITALS        =   21
 NUMBER OF ALPHA ELECTRONS        =    5 (   2 ACTIVE)
 NUMBER OF BETA ELECTRONS         =    5 (   2 ACTIVE)
 NUMBER OF OCCUPIED ORBITALS      =   24
 NUMBER OF CI STATES REQUESTED    =    1
 NUMBER OF CI STARTING VECTORS    =    1
 MAX. NO. OF CI EXPANSION VECTORS =   10
 SIZE OF INITIAL CI GUESS MATRIX  =  300
 MAX. NO. OF CI ITERS/STATE       =  100
 CI DIAGONALIZATION CRITERION     = 1.00E-06
 CI PROPERTIES WILL BE FOUND FOR ROOT NUMBER   1
 1E- DENSITY MATRIX OPTIONS ARE 1

 CORRELATION ENERGY ANALYSIS      =    F

 SYMMETRIES FOR THE   3 CORE,  21 ACTIVE ARE

     CORE= A     A     A   

   ACTIVE= A     A     A     A     A     A     A     A     A     A   
           A     A     A     A     A     A     A     A     A     A   
           A   

     --------------------------------------------
     PARTIAL TWO ELECTRON INTEGRAL TRANSFORMATION
     --------------------------------------------

 NUMBER OF CORE MOLECULAR ORBITALS     =    3
 NUMBER OF OCCUPIED MOLECULAR ORBITALS =   24
 TOTAL NUMBER OF MOLECULAR ORBITALS    =   24
 TOTAL NUMBER OF ATOMIC ORBITALS       =   25
 THRESHOLD FOR KEEPING TRANSFORMED 2E- INTEGRALS = 1.000E-09
 AO INTEGRALS WILL BE CALCULATED IN DIRECT MODE...
 EVALUATING THE FROZEN CORE ENERGY...
 ----- FROZEN CORE ENERGY =       -79.0369875024

 PLAN A: REQUIREMENTS FOR FULLY IN-MEMORY TRANSFORMATION:
 # OF WORDS AVAILABLE =             65535999
 # OF WORDS NEEDED    =               279354

 CHOOSING IN MEMORY PARTIAL TRANSFORMATION...
 DIRECT TRANSFORMATION SKIPS AO INTEGRAL STORAGE ON DISK.
 TOTAL NUMBER OF TRANSFORMED 2E- INTEGRALS KEPT =         7192
 ... END OF INTEGRAL TRANSFORMATION ...
 STEP CPU TIME =     0.01 TOTAL CPU TIME =          0.0 (      0.0 MIN)
 TOTAL WALL CLOCK TIME=          0.0 SECONDS, CPU UTILIZATION IS    99.25%

     --------------------------------------------------
          AMES LABORATORY DETERMINANTAL FULL CI
     PROGRAM WRITTEN BY JOE IVANIC AND KLAUS RUEDENBERG
     --------------------------------------------------

 THE NUMBER OF DETERMINANTS HAVING SPACE SYMMETRY A  
 IN POINT GROUP C1   WITH SZ=  0.0 IS          44100
 WHICH INCLUDES          16170 CSFS WITH S=  0.0
 WHICH INCLUDES          21945 CSFS WITH S=  1.0
 WHICH INCLUDES           5985 CSFS WITH S=  2.0
 THE DETERMINANT FULL CI REQUIRES         1186931 WORDS
 INITIAL CI VECTOR GUESS TIME  :          0.0
 INITIAL FULL CI ITERATION TIME:          0.0

 ITERATION      ENERGY           GRADIENT
     0      -76.0487884519     0.48231515
     1      -76.0991893871     0.06616840
     2      -76.1000552996     0.01229744
     3      -76.1000890584     0.00249270
     4      -76.1000907802     0.00072857
     5      -76.1000909332     0.00022791
     6      -76.1000909446     0.00004997
     7      -76.1000909451     0.00001079
     8      -76.1000909452     0.00000267
     9      -76.1000909452     0.00000065

 CONVERGED STATE    1 ENERGY=      -76.1000909452 IN    9 ITERS

 ALL STATES CONVERGED.

 CI EIGENVECTORS WILL BE LABELED IN GROUP=C1      
 PRINTING CI COEFFICIENTS LARGER THAN 5.000E-02

 STATE   1  ENERGY=       -76.1000909452  S=  0.00  SZ=  0.00  SPACE SYM=A   

        ALPHA          |        BETA           | CI COEFFICIENT
-----------------------|-----------------------|---------------
 110000000000000000000 | 110000000000000000000 |   0.9894636823
 100000010000000000000 | 100000010000000000000 |  -0.0560400894
 ..... DONE WITH DETERMINANT CI COMPUTATION .....
 STEP CPU TIME =     0.26 TOTAL CPU TIME =          0.3 (      0.0 MIN)
 TOTAL WALL CLOCK TIME=          0.3 SECONDS, CPU UTILIZATION IS    99.72%

     ---------------------------
     ONE PARTICLE DENSITY MATRIX
     ---------------------------

 DENSITY MATRIX WILL BE SAVED FOR   1-TH STATE WITH S= 0.00

 CI EIGENSTATE   1 TOTAL ENERGY =      -76.1000909452

          NATURAL ORBITALS IN ATOMIC ORBITAL BASIS
          ----------------------------------------

                      1          2          3          4          5
                    2.0000     2.0000     2.0000     1.9797     1.9781
                     A          A          A          A          A   
    1  O  1  S    1.000898  -0.008185  -0.000000   0.000000   0.001942
    2  O  1  S    0.001171   0.442962  -0.000000   0.000000  -0.151521
    3  O  1  S   -0.002670   0.376202  -0.000000   0.000000  -0.348850
    4  O  1  X   -0.000000  -0.000000   0.489896   0.000000  -0.000000
    5  O  1  Y    0.001761   0.078721  -0.000000   0.000000   0.547287
    6  O  1  Z   -0.000000  -0.000000  -0.000000   0.631309  -0.000000
    7  O  1  X   -0.000000  -0.000000   0.222139   0.000000  -0.000000
    8  O  1  Y   -0.000486  -0.012992  -0.000000   0.000000   0.362426
    9  O  1  Z   -0.000000  -0.000000  -0.000000   0.494927  -0.000000
   10  O  1 XX    0.000113   0.001980  -0.000000   0.000000  -0.005594
   11  O  1 YY    0.000011   0.001245  -0.000000   0.000000   0.017846
   12  O  1 ZZ   -0.000124  -0.003225  -0.000000   0.000000  -0.012252
   13  O  1 XY   -0.000000  -0.000000   0.026787   0.000000  -0.000000
   14  O  1 XZ   -0.000000  -0.000000  -0.000000   0.000000  -0.000000
   15  O  1 YZ   -0.000000  -0.000000  -0.000000   0.018361  -0.000000
   16  H  2  S   -0.000237   0.193316  -0.327823   0.000000   0.206381
   17  H  2  S    0.000421   0.010102  -0.089938   0.000000   0.042182
   18  H  2  X   -0.000569   0.037277  -0.023311   0.000000   0.030795
   19  H  2  Y    0.000481  -0.020475   0.032662   0.000000   0.009294
   20  H  2  Z   -0.000000  -0.000000  -0.000000   0.031797  -0.000000
   21  H  3  S   -0.000237   0.193316   0.327823   0.000000   0.206381
   22  H  3  S    0.000421   0.010102   0.089938   0.000000   0.042182
   23  H  3  X    0.000569  -0.037277  -0.023311   0.000000  -0.030795
   24  H  3  Y    0.000481  -0.020475  -0.032662   0.000000   0.009294
   25  H  3  Z   -0.000000  -0.000000  -0.000000   0.031797  -0.000000

                      6          7          8          9         10
                    0.0128     0.0125     0.0047     0.0038     0.0030
                     A          A          A          A          A   
    1  O  1  S   -0.148685  -0.000000  -0.000000   0.118115   0.000000
    2  O  1  S   -0.272429  -0.000000  -0.000000   0.393461   0.000000
    3  O  1  S    0.733483  -0.000000  -0.000000   0.103060   0.000000
    4  O  1  X   -0.000000  -0.000000   0.491044   0.000000   0.000000
    5  O  1  Y    0.966788  -0.000000  -0.000000  -0.127144   0.000000
    6  O  1  Z   -0.000000  -0.962704  -0.000000   0.000000   0.098753
    7  O  1  X   -0.000000  -0.000000   0.497281   0.000000   0.000000
    8  O  1  Y   -0.590222  -0.000000  -0.000000   0.667925   0.000000
    9  O  1  Z   -0.000000   0.974646  -0.000000   0.000000  -0.288967
   10  O  1 XX    0.031071  -0.000000  -0.000000  -0.223428   0.000000
   11  O  1 YY   -0.109209  -0.000000  -0.000000  -0.521014   0.000000
   12  O  1 ZZ    0.078138  -0.000000  -0.000000   0.744441   0.000000
   13  O  1 XY   -0.000000  -0.000000  -0.464833   0.000000   0.000000
   14  O  1 XZ   -0.000000  -0.000000  -0.000000   0.000000   0.000000
   15  O  1 YZ   -0.000000   0.092315  -0.000000   0.000000   0.900530
   16  H  2  S   -0.287560  -0.000000   0.611724  -0.385286   0.000000
   17  H  2  S   -0.123485  -0.000000   0.143281  -0.032047   0.000000
   18  H  2  X   -0.050874  -0.000000   0.037848  -0.089831   0.000000
   19  H  2  Y   -0.031591  -0.000000   0.008783  -0.056637   0.000000
   20  H  2  Z   -0.000000   0.057426  -0.000000   0.000000   0.177768
   21  H  3  S   -0.287560  -0.000000  -0.611724  -0.385286   0.000000
   22  H  3  S   -0.123485  -0.000000  -0.143281  -0.032047   0.000000
   23  H  3  X    0.050874  -0.000000   0.037848   0.089831   0.000000
   24  H  3  Y   -0.031591  -0.000000  -0.008783  -0.056637   0.000000
   25  H  3  Z   -0.000000   0.057426  -0.000000   0.000000   0.177768

                     11         12         13         14         15
                    0.0020     0.0016     0.0009     0.0002     0.0002
                     A          A          A          A          A   
    1  O  1  S   -0.000000   0.227471  -0.432296  -0.000000  -0.511187
    2  O  1  S   -0.000000   0.646029  -1.063050  -0.000000  -1.001962
    3  O  1  S   -0.000000  -0.312544   1.280059  -0.000000   2.452232
    4  O  1  X   -0.000000  -0.000000   0.000000   0.605409  -0.000000
    5  O  1  Y   -0.000000   0.060184  -0.000103  -0.000000  -0.168655
    6  O  1  Z   -0.000000  -0.000000   0.000000  -0.000000  -0.000000
    7  O  1  X   -0.000000  -0.000000   0.000000  -0.076517  -0.000000
    8  O  1  Y   -0.000000   0.101820  -0.007594  -0.000000   1.579164
    9  O  1  Z   -0.000000  -0.000000   0.000000  -0.000000  -0.000000
   10  O  1 XX   -0.000000  -0.547581  -0.441559  -0.000000   0.216435
   11  O  1 YY   -0.000000   0.654773   0.096438  -0.000000   0.366646
   12  O  1 ZZ   -0.000000  -0.107192   0.345121  -0.000000  -0.583081
   13  O  1 XY   -0.000000  -0.000000   0.000000   0.826426  -0.000000
   14  O  1 XZ    0.833200  -0.000000   0.000000  -0.000000  -0.000000
   15  O  1 YZ   -0.000000  -0.000000   0.000000  -0.000000  -0.000000
   16  H  2  S   -0.000000  -0.137568  -0.199770   0.403634  -1.328034
   17  H  2  S   -0.000000  -0.137918   0.059638   0.263555  -0.123399
   18  H  2  X   -0.000000   0.101897   0.019510   0.083721  -0.298462
   19  H  2  Y   -0.000000   0.092393   0.249207   0.070289  -0.244519
   20  H  2  Z   -0.237368  -0.000000   0.000000  -0.000000  -0.000000
   21  H  3  S   -0.000000  -0.137568  -0.199770  -0.403634  -1.328034
   22  H  3  S   -0.000000  -0.137918   0.059638  -0.263555  -0.123399
   23  H  3  X   -0.000000  -0.101897  -0.019510   0.083721   0.298462
   24  H  3  Y   -0.000000   0.092393   0.249207  -0.070289  -0.244519
   25  H  3  Z    0.237368  -0.000000   0.000000  -0.000000  -0.000000

                     16         17         18         19         20
                    0.0001     0.0001     0.0001     0.0001     0.0000
                     A          A          A          A          A   
    1  O  1  S   -0.000000  -0.000000  -0.000000  -0.262685   0.000000
    2  O  1  S   -0.000000  -0.000000  -0.000000  -0.616311   0.000000
    3  O  1  S   -0.000000  -0.000000  -0.000000   0.003908   0.000000
    4  O  1  X   -0.000000  -0.560480  -0.000000   0.000000  -0.506899
    5  O  1  Y   -0.000000  -0.000000  -0.000000  -0.411261   0.000000
    6  O  1  Z    0.022387  -0.000000  -0.000000   0.000000   0.000000
    7  O  1  X   -0.000000   1.365875  -0.000000   0.000000   1.164486
    8  O  1  Y   -0.000000  -0.000000  -0.000000  -0.383677   0.000000
    9  O  1  Z   -0.718403  -0.000000  -0.000000   0.000000   0.000000
   10  O  1 XX   -0.000000  -0.000000  -0.000000   0.274279   0.000000
   11  O  1 YY   -0.000000  -0.000000  -0.000000  -0.480523   0.000000
   12  O  1 ZZ   -0.000000  -0.000000  -0.000000   0.206243   0.000000
   13  O  1 XY   -0.000000   0.581402  -0.000000   0.000000  -0.047634
   14  O  1 XZ   -0.000000  -0.000000   0.677727   0.000000   0.000000
   15  O  1 YZ   -0.541771  -0.000000  -0.000000   0.000000   0.000000
   16  H  2  S   -0.000000   0.857341  -0.000000   0.606241   0.077561
   17  H  2  S   -0.000000  -0.090414  -0.000000  -0.421027   0.743530
   18  H  2  X   -0.000000   0.215216  -0.000000   0.748920  -0.637491
   19  H  2  Y   -0.000000   0.136782  -0.000000   0.050598  -0.307050
   20  H  2  Z    0.843613  -0.000000   0.742524   0.000000   0.000000
   21  H  3  S   -0.000000  -0.857341  -0.000000   0.606241  -0.077561
   22  H  3  S   -0.000000   0.090414  -0.000000  -0.421027  -0.743530
   23  H  3  X   -0.000000   0.215216  -0.000000  -0.748920  -0.637491
   24  H  3  Y   -0.000000  -0.136782  -0.000000   0.050598   0.307050
   25  H  3  Z    0.843613  -0.000000  -0.742524   0.000000   0.000000

                     21         22         23         24
                    0.0000     0.0000     0.0000     0.0000
                     A          A          A          A   
    1  O  1  S   -0.152228  -0.221835  -0.000000   0.000000
    2  O  1  S   -0.445200  -0.358223  -0.000000   0.000000
    3  O  1  S   -0.646353   2.913242  -0.000000   0.000000
    4  O  1  X   -0.000000   0.000000   0.657464   0.048196
    5  O  1  Y   -0.322368   0.311354  -0.000000   0.000000
    6  O  1  Z   -0.000000   0.000000  -0.000000   0.000000
    7  O  1  X   -0.000000   0.000000   1.322326  -0.831122
    8  O  1  Y   -0.209978   0.957065  -0.000000   0.000000
    9  O  1  Z   -0.000000   0.000000  -0.000000   0.000000
   10  O  1 XX   -0.806379   0.285038  -0.000000   0.000000
   11  O  1 YY    0.366359   0.053308  -0.000000   0.000000
   12  O  1 ZZ    0.440021  -0.338346  -0.000000   0.000000
   13  O  1 XY   -0.000000   0.000000   0.734259  -0.113148
   14  O  1 XZ   -0.000000   0.000000  -0.000000   0.000000
   15  O  1 YZ   -0.000000   0.000000  -0.000000   0.000000
   16  H  2  S    0.921044  -0.548685   1.059736   0.218644
   17  H  2  S   -0.266632  -0.977529   0.312093  -1.639252
   18  H  2  X    0.127230  -0.847452   0.632363  -0.591390
   19  H  2  Y   -0.728814   0.571496  -0.982126   0.088373
   20  H  2  Z   -0.000000   0.000000  -0.000000   0.000000
   21  H  3  S    0.921044  -0.548685  -1.059736  -0.218644
   22  H  3  S   -0.266632  -0.977529  -0.312093   1.639252
   23  H  3  X   -0.127230   0.847452   0.632363  -0.591390
   24  H  3  Y   -0.728814   0.571496   0.982126  -0.088373
   25  H  3  Z   -0.000000   0.000000  -0.000000   0.000000
 ..... DONE WITH ONE PARTICLE DENSITY MATRIX .....
 STEP CPU TIME =     0.00 TOTAL CPU TIME =          0.3 (      0.0 MIN)
 TOTAL WALL CLOCK TIME=          0.3 SECONDS, CPU UTILIZATION IS    99.72%

     --------------------------------------------------------
     ALDET CI PROPERTIES...FOR THE WAVEFUNCTION OF STATE    1
               USING THE EXPECTATION VALUE DENSITY
     --------------------------------------------------------

          -----------------
          ENERGY COMPONENTS
          -----------------

         WAVEFUNCTION NORMALIZATION =       1.0000000000

                ONE ELECTRON ENERGY =    -123.0707213062
                TWO ELECTRON ENERGY =      37.7832621445
           NUCLEAR REPULSION ENERGY =       9.1873682166
                                      ------------------
                       TOTAL ENERGY =     -76.1000909452

 ELECTRON-ELECTRON POTENTIAL ENERGY =      37.7832621445
  NUCLEUS-ELECTRON POTENTIAL ENERGY =    -199.1320721915
   NUCLEUS-NUCLEUS POTENTIAL ENERGY =       9.1873682166
                                      ------------------
             TOTAL POTENTIAL ENERGY =    -152.1614418304
               TOTAL KINETIC ENERGY =      76.0613508853
                 VIRIAL RATIO (V/T) =       2.0005093265

          ---------------------------------------
          MULLIKEN AND LOWDIN POPULATION ANALYSES
          ---------------------------------------

               ----- POPULATIONS IN EACH AO -----
                             MULLIKEN      LOWDIN
              1  O  1  S      2.00176     1.90131
              2  O  1  S      0.83347     0.59321
              3  O  1  S      0.82217     0.49989
              4  O  1  X      0.77338     0.70169
              5  O  1  Y      0.92241     0.87244
              6  O  1  Z      1.12008     1.07733
              7  O  1  X      0.38180     0.53198
              8  O  1  Y      0.59631     0.68246
              9  O  1  Z      0.82603     0.78786
             10  O  1 XX      0.00460     0.18610
             11  O  1 YY      0.00143     0.17884
             12  O  1 ZZ      0.01061     0.17630
             13  O  1 XY      0.00164     0.01992
             14  O  1 XZ      0.00390     0.00161
             15  O  1 YZ      0.00000     0.00299
             16  H  2  S      0.69124     0.55245
             17  H  2  S      0.07098     0.16172
             18  H  2  X      0.03746     0.05739
             19  H  2  Y      0.02759     0.05762
             20  H  2  Z      0.02293     0.06387
             21  H  3  S      0.69124     0.55245
             22  H  3  S      0.07098     0.16172
             23  H  3  X      0.03746     0.05739
             24  H  3  Y      0.02759     0.05762
             25  H  3  Z      0.02293     0.06387

          ----- MULLIKEN ATOMIC OVERLAP POPULATIONS -----
          (OFF-DIAGONAL ELEMENTS NEED TO BE MULTIPLIED BY 2)

             1           2           3

    1    7.5747669
    2    0.3624129   0.5207084
    3    0.3624129  -0.0329177   0.5207084

          TOTAL MULLIKEN AND LOWDIN ATOMIC POPULATIONS
       ATOM         MULL.POP.    CHARGE          LOW.POP.     CHARGE
    1 O             8.299593   -0.299593         8.213931   -0.213931
    2 H             0.850204    0.149796         0.893035    0.106965
    3 H             0.850204    0.149796         0.893035    0.106965

          MULLIKEN SPHERICAL HARMONIC POPULATIONS
       ATOM           S       P       D      F      G      H      I    TOTAL
    1 O             3.66    4.62    0.02   0.00   0.00   0.00   0.00    8.30
    2 H             0.76    0.09    0.00   0.00   0.00   0.00   0.00    0.85
    3 H             0.76    0.09    0.00   0.00   0.00   0.00   0.00    0.85

          ---------------------
          ELECTROSTATIC MOMENTS
          ---------------------

 POINT   1           X           Y           Z (BOHR)    CHARGE
                 0.000000    0.000028    0.000000       -0.00 (A.U.)
         DX          DY          DZ         /D/  (DEBYE)
    -0.000000    2.011115    0.000000    2.011115
 ...... END OF PROPERTY EVALUATION ......
 STEP CPU TIME =     0.00 TOTAL CPU TIME =          0.3 (      0.0 MIN)
 TOTAL WALL CLOCK TIME=          0.3 SECONDS, CPU UTILIZATION IS    99.72%
              1187828  WORDS OF DYNAMIC MEMORY USED
 EXECUTION OF GAMESS TERMINATED NORMALLY 11:51:12 29-JUL-2025    
 DDI: 263640 bytes (0.3 MB / 0 MWords) used by master data server.

 ----------------------------------------
 CPU timing information for all processes
 ========================================
 0: 0.291 + 0.15 = 0.306
 ----------------------------------------
 ddikick.x: exited gracefully.
----- accounting info -----
Files used on the parent node dodecaedro were:
-rw-r--r-- 1 paulo paulo   21121 Jul 29 11:51 /home/paulo/gamess/restart/H2O_CISDTQ.dat
-rw-r--r-- 1 paulo paulo    2507 Jul 29 11:51 /home/paulo/gamess/restart/H2O_CISDTQ.F05
-rw-r--r-- 1 paulo paulo  181872 Jul 29 11:51 /home/paulo/gamess/restart/H2O_CISDTQ.F09
-rw-r--r-- 1 paulo paulo 1897760 Jul 29 11:51 /home/paulo/gamess/restart/H2O_CISDTQ.F10
-rw-r--r-- 1 paulo paulo  352832 Jul 29 11:51 /home/paulo/gamess/restart/H2O_CISDTQ.F12
-rw-r--r-- 1 paulo paulo  130880 Jul 29 11:51 /home/paulo/gamess/restart/H2O_CISDTQ.F26R
-rw-r--r-- 1 paulo paulo       0 Jul 29 11:51 /home/paulo/gamess/restart/H2O_CISDTQ.F27R
Tue Jul 29 11:51:14 AM WEST 2025
0.111u 0.120s 0:01.61 14.2%	0+0k 0+8io 0pf+0w
