1 : H2O_CISDTQ5678.inp
2 : 00
3 : 1
----- GAMESS execution script 'rungms' -----
This job is running on host dodecaedro
under operating system Linux at Sat Jul 26 08:55:49 PM WEST 2025
Available scratch disk space (Kbyte units) at beginning of the job is
Filesystem      1K-blocks       Used  Available Use% Mounted on
/dev/sdb1      5813177436 4499098340 1021036636  82% /home
GAMESS temporary binary files will be written to /home/paulo/gamess/restart
GAMESS supplementary output files will be written to /home/paulo/gamess/restart
Copying input file /home/paulo/WORK/H2O-CCD/H2O_CISDTQ5678.inp to your run's scratch directory...
removed '/home/paulo/gamess/restart/H2O_CISDTQ5678.dat'

 Distributed Data Interface kickoff program.
 Initiating 1 compute processes on 1 nodes to run the following command:
 /home/paulo/WORK/BUILD/GAMESS/Nov2023/gamess/gamess.00.x H2O_CISDTQ5678 

          *******************************************************
          *                                                     *
          *          GAMESS VERSION = 30 SEP 2023 (R2)          *
          *                                                     *
          *              doi.org/10.1063/5.0005188              *
          *                                                     *
          **************** 64 BIT LINUX VERSION *****************

  GAMESS HAS BEEN MADE POSSIBLE WITH IMPORTANT CONTRIBUTIONS FROM
  THE FOLLOWING INDIVIDUALS (IN ALPHABETICAL ORDER):

     IVANA ADAMOVIC, CHRISTINE AIKENS, TOMOKO AKAMA,
     MELISA ALKAN, YURI ALEXEEV, YURIKO AOKI, POOJA ARORA,
     TOSHIO ASADA, ANDREY ASADCHEV, KIM K. BALDRIDGE,
     PRADIPTA BANDYOPADHYAY, TAYLOR A. BARNES, MARIA BARYSZ,
     ROB BELL, JONATHAN BENTZ, COLLEEN BERTONI,
     JERRY A. BOATZ, BRETT BODE, KURT BRORSEN, KURT R. BRORSEN,
     LAIMUTIS BYTAUTAS, CALEB CARLIN, LAURA CARRINGTON,
     GALINA CHABAN, BENOIT CHAMPAGNE, WEI CHEN, MAHITO CHIBA,
     DAN CHIPMAN, CHEOL HO CHOI, TANNER CULPITT,
     DIPAYAN DATTA, PAUL DAY, ALBERT DEFUSCO,
     NUWAN DESILVA, J. EMILIANO DEUSTUA,
     TIM DUDLEY, MICHEL DUPUIS, STEVEN T. ELBERT,
     DMITRI FEDOROV, KATHERINE FERRERAS, MICHAEL FILATOV,
     ALEX FINDLATER,GRAHAM FLETCHER, MARK FREITAG,
     CHRISTIAN FRIEDL, DAVID GARMER, 
     IGOR S. GERASIMOV, KURT GLAESEMANN,
     MARK S. GORDON, JEFFREY R. GOUR, FENG LONG GU,
     EMILIE B. GUIDEZ, ANASTASIA GUNINA, SHARON HAMMES-SCHIFFER,
     MASATAKE HARUTA, KIMIHIKO HIRAO, YASUHIRO IKABATA,
     TZVETELIN IORDANOV, STEPHAN IRLE, KAZUYA ISHIMURA,
     JOE IVANIC, FRANK JENSEN, JAN H. JENSEN, VISVALDAS KAIRYS,
     MUNEAKI KAMIYA, MICHIO KATOUDA, NAOAKI KAWAKAMI, DAN KEMP,
     BERNARD KIRTMAN, KAZUO KITAURA, MARIUSZ KLOBUKOWSKI,
     MASATO KOBAYASHI, KONSTANTIN KOMAROV, PRAKASHAN KORAMBATH,
     JACEK KORCHOWIEC, SHIRO KOSEKI, KAROL KOWALSKI,
     JIMMY KROMANN, STANISLAW A. KUCHARSKI, HENRY KURTZ,
     SAROM SOK LEANG, SEUNGHOON LEE, HUI LI, SHUHUA LI, WEI LI,
     JESSE J. LUTZ, ALEKSANDR O. LYKHIN,
     ILIAS MAGOULAS, MARCIN MAKOWSKI,
     JOANI MATO, NIKITA MATSUNAGA, BENEDETTA MENNUCCI,
     GRANT MERRILL, NORIYUKI MINEZAWA, VLADIMIR MIRONOV,
     EISAKU MIYOSHI, JOHN A. MONTGOMERY JR., HIROTOSHI MORI,
     JONATHAN MULLIN, MONIKA MUSIAL, SHIGERU NAGASE,
     TAKESHI NAGATA, HIROMI NAKAI, TAKAHITO NAKAJIMA,
     YUYA NAKAJIMA, HARUYUKI NAKANO, HIROYA NAKATA, SEAN NEDD,
     HEATHER NETZLOFF, KIET A. NGUYEN, YOSHIO NISHIMOTO,
     BOSILJKA NJEGIC, RYAN OLSON, MIKE PAK, ROBERTO PEVERATI,
     BUU PHAM, PIOTR PIECUCH, ANNA POMOGAEVA, DAVID POOLE,
     SPENCER PRUITT, OLIVIER QUINET, LUKE ROSKOP,
     KLAUS RUEDENBERG, ANDREW SAND, TOSAPORN SATTASATHUCHANA,
     NOZOMI SAWADA, MICHAEL W. SCHMIDT, PATRICK E. SCHNEIDER,
     JUNJI SEINO, PRACHI SHARMA, JUN SHEN, JIM SHOEMAKER,
     GEORGE SCHOENDORFF, YINAN SHU, DEJUN SI, JONATHAN SKONE,
     LYUDMILA SLIPCHENKO, TONY SMITH, JIE SONG, MARK SPACKMAN,
     CASPER STEINMANN, WALT STEVENS, PEIFENG SU, SHUJUN SU,
     CHET SWALINA, CHINAMI TAKASHIMA, TETSUYA TAKETSUGU,
     ZHEN TAO, NANDUN THELLAMUREGE, SEIKEN TOKURA,
     JACOPO TOMASI, TSUGUKI TOUMA, TAKAO TSUNEDA, HIROAKI UMEDA,
     JORGE LUIS GALVEZ VALLEJO, YALI WANG, SIMON WEBB,
     AARON WEST, THERESA L. WINDUS, MARTA WLOCH,
     PENG XU, KIYOSHI YAGI, SUSUMU YANAGISAWA, YANG YANG,
     SOOHAENG YOO, TAKESHI YOSHIKAWA, FEDERICO ZAHARIEV,
     TOBY ZENG

  WHO ARE SUPPORTED BY THEIR INSTITUTION/UNIVERSITY/COMPANY/GROUP
  (IN ALPHABETICAL ORDER):

     EP ANALYTICS,
     FACULTES UNIVERSITAIRES NOTRE-DAME DE LA PAIX,
     INSTITUTE FOR MOLECULAR SCIENCE, IOWA STATE UNIVERSITY,
     JACKSON STATE UNIVERSITY, JOHANNES KEPLER UNIVERSITY LINZ,
     KYUNGPOOK NATIONAL UNIVERSITY
     KYUSHU UNIVERSITY, MICHIGAN STATE UNIVERSITY,
     MIE UNIVERSITY, THE MOLECULAR SCIENCES SOFTWARE INSTITUTE,
     MOSCOW STATE UNIVERSITY,
     N. COPERNICUS UNIVERSITY, NAGOYA UNIVERSITY,
     NANJING UNIVERSITY, NAT. INST. OF ADVANCED INDUSTRIAL
     SCIENCE AND TECHNOLOGY, NATIONAL INST. OF STANDARDS AND
     TECHNOLOGY, NESMEYANOV INSTITUTE OF ORGANOELEMENT COMPOUNDS
     OF RUSSIAN ACADEMY OF SCIENCES, OSAKA PREFECTURE UNIVERSITY,
     PENNSYLVANIA STATE UNIVERSITY, TOKYO INSTITUTE OF TECHNOLOGY,
     UNIVERSITY OF AARHUS, UNIVERSITY OF ALBERTA,
     UNIVERSITY OF CALIFORNIA AT SANTA BARBARA,
     UNIVERSITY OF COPENHAGEN, UNIVERSITY OF IOWA,
     UNIVERSITY OF MEMPHIS, UNIVERSITY OF MINNESOTA,
     UNIVERSITY OF NEBRASKA, UNIVERSITY OF NEW ENGLAND,
     UNIVERSITY OF NOTRE DAME, UNIVERSITY OF PISA,
     UNIVERSITY OF SILESIA, UNIVERSITY OF TOKYO,
     UNIVERSITY OF ZURICH, WASEDA UNIVERSITY,
     YALE UNIVERSITY

  GAMESS SOFTWARE MANAGEMENT TEAM FOR THIS RELEASE:
     MARK S. GORDON (TEAM LEAD),
     BRETT BODE (SENIOR ADVISOR),
     GIUSEPPE BARCA,
     COLLEEN BERTONI,
     KRISTOPHER KEIPERT (ADVISOR),
     SAROM S. LEANG (DEVELOPMENT LEAD),
     BUU PHAM,
     JACKSON HAYES (WEBSITE ADMINISTRATOR),
     PENG XU

 EXECUTION OF GAMESS BEGUN 20:55:49 26-JUL-2025    

            ECHO OF THE FIRST FEW INPUT CARDS -
 INPUT CARD>!   File created by MacMolPlt 7.7.3                                             
 INPUT CARD> $CONTRL SCFTYP=RHF RUNTYP=ENERGY EXETYP=RUN CITYP=ALDET MAXIT=30               
 INPUT CARD>         MULT=1 ISPHER=1                                                        
 INPUT CARD> $END                                                                           
 INPUT CARD> $SYSTEM TIMLIM=525600 MEMORY=1755360000 MEMDDI=3750 $END                       
 INPUT CARD> $BASIS GBASIS=CCD $END                                                         
 INPUT CARD> $GUESS GUESS=MOREAD NORB=5 $END                                                
 INPUT CARD> $CIDET NCORE=1 NACT=23 NELS=8 $END                                             
 INPUT CARD> $SCF DIRSCF=.TRUE. $END                                                        
 INPUT CARD> $DATA                                                                          
 INPUT CARD>Title                                                                           
 INPUT CARD>C1                                                                              
 INPUT CARD>O     8.0     0.00000    -0.06564     0.00000                                   
 INPUT CARD>H     1.0    -0.75737     0.52101     0.00000                                   
 INPUT CARD>H     1.0     0.75737     0.52101     0.00000                                   
 INPUT CARD> $END                                                                           
 INPUT CARD> $VEC                                                                           
 INPUT CARD> 1  1 1.00089800E+00 1.17099995E-03-2.67000007E-03-0.00000000E+00 1.76100002E-03
 INPUT CARD> 1  2-0.00000000E+00-0.00000000E+00-4.86000004E-04-0.00000000E+00 1.13000002E-04
 INPUT CARD> 1  3 1.10000001E-05-1.23999998E-04-0.00000000E+00-0.00000000E+00-0.00000000E+00
 INPUT CARD> 1  4-2.37000000E-04 4.21000004E-04-5.69000025E-04 4.80999995E-04-0.00000000E+00
 INPUT CARD> 1  5-2.37000000E-04 4.21000004E-04 5.69000025E-04 4.80999995E-04-0.00000000E+00
 INPUT CARD> 2  1-8.18500016E-03 4.42961991E-01 3.76201987E-01-0.00000000E+00 7.87210017E-02
 INPUT CARD> 2  2-0.00000000E+00-0.00000000E+00-1.29920002E-02-0.00000000E+00 1.97999994E-03
 INPUT CARD> 2  3 1.24500005E-03-3.22500011E-03-0.00000000E+00-0.00000000E+00-0.00000000E+00
 INPUT CARD> 2  4 1.93315998E-01 1.01020001E-02 3.72769982E-02-2.04750001E-02-0.00000000E+00
 INPUT CARD> 2  5 1.93315998E-01 1.01020001E-02-3.72769982E-02-2.04750001E-02-0.00000000E+00
 INPUT CARD> 3  1-0.00000000E+00-0.00000000E+00-0.00000000E+00 4.89895999E-01-0.00000000E+00
 INPUT CARD> 3  2-0.00000000E+00 2.22139001E-01-0.00000000E+00-0.00000000E+00-0.00000000E+00
 INPUT CARD> 3  3-0.00000000E+00-0.00000000E+00 2.67869998E-02-0.00000000E+00-0.00000000E+00
 INPUT CARD> 3  4-3.27823013E-01-8.99379998E-02-2.33110003E-02 3.26620005E-02-0.00000000E+00
 INPUT CARD> 3  5 3.27823013E-01 8.99379998E-02-2.33110003E-02-3.26620005E-02-0.00000000E+00
 INPUT CARD> 4  1 2.16699997E-03-1.50379002E-01-3.49662989E-01-0.00000000E+00 5.45377016E-01
 INPUT CARD> 4  2-0.00000000E+00-0.00000000E+00 3.65321994E-01-0.00000000E+00-4.95600002E-03
 INPUT CARD> 4  3 1.78689994E-02-1.29129998E-02-0.00000000E+00-0.00000000E+00-0.00000000E+00
 INPUT CARD> 4  4 2.06447005E-01 4.04650010E-02 3.17620002E-02 7.50900013E-03-0.00000000E+00
 INPUT CARD> 4  5 2.06447005E-01 4.04650010E-02-3.17620002E-02 7.50900013E-03-0.00000000E+00
 INPUT CARD> 5  1 0.00000000E+00 0.00000000E+00 0.00000000E+00 0.00000000E+00 0.00000000E+00
 INPUT CARD> 5  2 6.31199002E-01 0.00000000E+00 0.00000000E+00 4.95680004E-01 0.00000000E+00
 INPUT CARD> 5  3 0.00000000E+00 0.00000000E+00 0.00000000E+00 0.00000000E+00 1.81990005E-02
 INPUT CARD> 5  4 0.00000000E+00 0.00000000E+00 0.00000000E+00 0.00000000E+00 3.10520008E-02
 INPUT CARD> 5  5 0.00000000E+00 0.00000000E+00 0.00000000E+00 0.00000000E+00 3.10520008E-02
 INPUT CARD> $END                                                                           
   1755360000 WORDS OF MEMORY AVAILABLE

     BASIS OPTIONS
     -------------
     GBASIS=CCD          IGAUSS=       0      POLAR=NONE    
     NDFUNC=       0     NFFUNC=       0     DIFFSP=       F
     NPFUNC=       0      DIFFS=       F     BASNAM=        


     RUN TITLE
     ---------
 Title                                                                           

 THE POINT GROUP OF THE MOLECULE IS C1      
 THE ORDER OF THE PRINCIPAL AXIS IS     0

 ATOM      ATOMIC                      COORDINATES (BOHR)
           CHARGE         X                   Y                   Z
 O           8.0     0.0000000000       -0.1240416138        0.0000000000
 H           1.0    -1.4312217713        0.9845661369        0.0000000000
 H           1.0     1.4312217713        0.9845661369        0.0000000000

          INTERNUCLEAR DISTANCES (ANGS.)
          ------------------------------

                1 O          2 H          3 H     

   1 O       0.0000000    0.9580018 *  0.9580018 *
   2 H       0.9580018 *  0.0000000    1.5147400 *
   3 H       0.9580018 *  1.5147400 *  0.0000000  

  * ... LESS THAN  3.000


     ATOMIC BASIS SET
     ----------------
 THE CONTRACTED PRIMITIVE FUNCTIONS HAVE BEEN UNNORMALIZED
 THE CONTRACTED BASIS FUNCTIONS ARE NOW NORMALIZED TO UNITY

  SHELL TYPE  PRIMITIVE        EXPONENT          CONTRACTION COEFFICIENT(S)

 O         

      1   S       1         11720.0000000    0.000709645947
      1   S       2          1759.0000000    0.005467272292
      1   S       3           400.8000000    0.027823118610
      1   S       4           113.7000000    0.104747739711
      1   S       5            37.0300000    0.282920846357
      1   S       6            13.2700000    0.448495238698
      1   S       7             5.0250000    0.270816885213
      1   S       8             1.0130000    0.015450291607

      2   S       9         11720.0000000   -0.000314443412
      2   S      10          1759.0000000   -0.002482137681
      2   S      11           400.8000000   -0.012316355382
      2   S      12           113.7000000   -0.050538917344
      2   S      13            37.0300000   -0.139384903316
      2   S      14            13.2700000   -0.325077494818
      2   S      15             5.0250000   -0.229848307588
      2   S      16             1.0130000    1.095379346788

      3   S      17             0.3023000    1.000000000000

      4   P      18            17.7000000    0.062679166282
      4   P      19             3.8540000    0.333536565879
      4   P      20             1.0460000    0.741239641640

      5   P      21             0.2753000    1.000000000000

      6   D      22             1.1850000    1.000000000000

 H         

      7   S      23            13.0100000    0.033498726390
      7   S      24             1.9620000    0.234800801174
      7   S      25             0.4446000    0.813682957883

      8   S      26             0.1220000    1.000000000000

      9   P      27             0.7270000    1.000000000000

 H         

     10   S      28            13.0100000    0.033498726390
     10   S      29             1.9620000    0.234800801174
     10   S      30             0.4446000    0.813682957883

     11   S      31             0.1220000    1.000000000000

     12   P      32             0.7270000    1.000000000000

 TOTAL NUMBER OF BASIS SET SHELLS             =   12
 NUMBER OF CARTESIAN GAUSSIAN BASIS FUNCTIONS =   25
 NOTE: THIS RUN WILL RESTRICT THE MO VARIATION SPACE TO SPHERICAL HARMONICS.
 THE NUMBER OF ORBITALS KEPT IN THE VARIATIONAL SPACE WILL BE PRINTED LATER.
 NUMBER OF ELECTRONS                          =   10
 CHARGE OF MOLECULE                           =    0
 SPIN MULTIPLICITY                            =    1
 NUMBER OF OCCUPIED ORBITALS (ALPHA)          =    5
 NUMBER OF OCCUPIED ORBITALS (BETA )          =    5
 TOTAL NUMBER OF ATOMS                        =    3
 THE NUCLEAR REPULSION ENERGY IS        9.1873682166

     $CONTRL OPTIONS
     ---------------
 SCFTYP=RHF          RUNTYP=ENERGY       EXETYP=RUN     
 MPLEVL=       0     CITYP =ALDET        CCTYP =NONE         VBTYP =NONE    
 DFTTYP=NONE         TDDFT =NONE    
 MULT  =       1     ICHARG=       0     NZVAR =       0     COORD =UNIQUE  
 PP    =NONE         RELWFN=NONE         LOCAL =NONE         NUMGRD=       F
 ISPHER=       1     NOSYM =       0     MAXIT =      30     UNITS =ANGS    
 PLTORB=       F     MOLPLT=       F     AIMPAC=       F     FRIEND=        
 NPRINT=       7     IREST =       0     GEOM  =INPUT   
 NORMF =       0     NORMP =       0     ITOL  =      20     ICUT  =       9
 INTTYP=BEST         GRDTYP=BEST         QMTTOL= 1.0E-06

     $SYSTEM OPTIONS
     ---------------
  REPLICATED MEMORY=  1755360000 WORDS (ON EVERY NODE).
 DISTRIBUTED MEMDDI=        3750 MILLION WORDS IN AGGREGATE,
 MEMDDI DISTRIBUTED OVER   1 PROCESSORS IS  3750000000 WORDS/PROCESSOR.
 TOTAL MEMORY REQUESTED ON EACH PROCESSOR=  5505360000 WORDS.
 TIMLIM=      525600.00 MINUTES, OR     365.0 DAYS.
 PARALL= F  BALTYP=  DLB     KDIAG=    0  COREFL= F
 MXSEQ2=     300 MXSEQ3=     150  mem10=         0  mem22=         0

          ----------------
          PROPERTIES INPUT
          ----------------

     MOMENTS            FIELD           POTENTIAL          DENSITY
 IEMOM =       1   IEFLD =       0   IEPOT =       0   IEDEN =       0
 WHERE =COMASS     WHERE =NUCLEI     WHERE =NUCLEI     WHERE =NUCLEI  
 OUTPUT=BOTH       OUTPUT=BOTH       OUTPUT=BOTH       OUTPUT=BOTH    
 IEMINT=       0   IEFINT=       0                     IEDINT=       0
                                                       MORB  =       0
          EXTRAPOLATION IN EFFECT
          SOSCF IN EFFECT
 ORBITAL PRINTING OPTION: NPREO=     1    25     2     1

     -------------------------------
     INTEGRAL TRANSFORMATION OPTIONS
     -------------------------------
     NWORD  =            0
     CUTTRF = 1.0E-09     MPTRAN =       0
     DIRTRF =       T     AOINTS =DUP     

          ----------------------
          INTEGRAL INPUT OPTIONS
          ----------------------
 NOPK  =       1 NORDER=       0 SCHWRZ=       T

     ------------------------------------------
     THE POINT GROUP IS C1 , NAXIS= 0, ORDER= 1
     ------------------------------------------

 -- VARIATIONAL SPACE WILL BE RESTRICTED TO PURE SPHERICAL HARMONICS ONLY --
 AFTER EXCLUDING CONTAMINANT COMBINATIONS FROM THE CARTESIAN GAUSSIAN BASIS
 SET, THE NUMBER OF SPHERICAL HARMONICS KEPT IN THE VARIATION SPACE IS   24

     DIMENSIONS OF THE SYMMETRY SUBSPACES ARE
 A   =   24

 ..... DONE SETTING UP THE RUN .....
 STEP CPU TIME =     0.03 TOTAL CPU TIME =          0.0 (      0.0 MIN)
 TOTAL WALL CLOCK TIME=          0.3 SECONDS, CPU UTILIZATION IS     9.52%

          ********************
          1 ELECTRON INTEGRALS
          ********************
 ...... END OF ONE-ELECTRON INTEGRALS ......
 STEP CPU TIME =     0.00 TOTAL CPU TIME =          0.0 (      0.0 MIN)
 TOTAL WALL CLOCK TIME=          0.3 SECONDS, CPU UTILIZATION IS     9.87%

          -------------
          GUESS OPTIONS
          -------------
          GUESS =MOREAD            NORB  =       5          NORDER=       0
          MIX   =       F          PRTMO =       F          PUNMO =       F
          TOLZ  = 1.0E-08          TOLE  = 1.0E-05
          SYMDEN=       F          PURIFY=       F

 INITIAL GUESS ORBITALS GENERATED BY MOREAD   ROUTINE.

 STATISTICS FOR GENERATION OF SYMMETRY ORBITAL -Q- MATRIX
 NUMBER OF CARTESIAN ATOMIC ORBITALS=         25
 NUMBER OF SPHERICAL CONTAMINANTS DROPPED=     1
 NUMBER OF LINEARLY DEPENDENT MOS DROPPED=     0
 TOTAL NUMBER OF MOS IN VARIATION SPACE=      24

 SYMMETRIES FOR INITIAL GUESS ORBITALS FOLLOW.   BOTH SET(S).
     5 ORBITALS ARE OCCUPIED (    1 CORE ORBITALS).
     1=A        2=A        3=A        4=A        5=A        6=A        7=A   
     8=A        9=A       10=A       11=A       12=A       13=A       14=A   
    15=A       16=A       17=A       18=A       19=A       20=A       21=A   
    22=A       23=A       24=A   
 ...... END OF INITIAL ORBITAL SELECTION ......
 STEP CPU TIME =     0.00 TOTAL CPU TIME =          0.0 (      0.0 MIN)
 TOTAL WALL CLOCK TIME=          0.3 SECONDS, CPU UTILIZATION IS    10.24%

                    ----------------------
                    AO INTEGRAL TECHNOLOGY
                    ----------------------
     S,P,L SHELL ROTATED AXIS INTEGRALS, REPROGRAMMED BY
        KAZUYA ISHIMURA (IMS) AND JOSE SIERRA (SYNSTAR).
     S,P,D,L SHELL ROTATED AXIS INTEGRALS PROGRAMMED BY
        KAZUYA ISHIMURA (INSTITUTE FOR MOLECULAR SCIENCE).
     S,P,D,F,G SHELL TO TOTAL QUARTET ANGULAR MOMENTUM SUM 5,
        ERIC PROGRAM BY GRAHAM FLETCHER (ELORET AND NASA ADVANCED
        SUPERCOMPUTING DIVISION, AMES RESEARCH CENTER).
     S,P,D,F,G,L SHELL GENERAL RYS QUADRATURE PROGRAMMED BY
        MICHEL DUPUIS (PACIFIC NORTHWEST NATIONAL LABORATORY).

          --------------------
          2 ELECTRON INTEGRALS
          --------------------

 DIRECT SCF METHOD SKIPS INTEGRAL STORAGE ON DISK.
 DIRECT TRANSFORMATION SKIPS AO INTEGRAL STORAGE ON DISK.
  ...... END OF TWO-ELECTRON INTEGRALS .....
 STEP CPU TIME =     0.02 TOTAL CPU TIME =          0.0 (      0.0 MIN)
 TOTAL WALL CLOCK TIME=          0.4 SECONDS, CPU UTILIZATION IS    14.00%

          --------------------------
                 RHF SCF CALCULATION
          --------------------------

     NUCLEAR ENERGY =         9.1873682166
     MAXIT =   30     NPUNCH=    2
     EXTRAP=T  DAMP=F  SHIFT=F  RSTRCT=F  DIIS=F  DEM=F  SOSCF=T
     DENSITY MATRIX CONV=  2.00E-06
     SOSCF WILL OPTIMIZE      95 ORBITAL ROTATIONS, SOGTOL=   0.250
     MEMORY REQUIRED FOR RHF ITERS=     50657 WORDS.

 DIRECT SCF CALCULATION, SCHWRZ=T   FDIFF=T,  DIRTHR=  0.00E+00 NITDIR=10
 SCHWARZ INEQUALITY OVERHEAD:       325 INTEGRALS, T=        0.00

                                                                                   NONZERO     BLOCKS
 ITER EX DEM     TOTAL ENERGY        E CHANGE  DENSITY CHANGE     ORB. GRAD      INTEGRALS    SKIPPED
   1  0  0      -76.0267610000   -76.0267610000   0.000001113   0.000000000          25620          0
          ---------------START SECOND ORDER SCF---------------
   2  1  0      -76.0267610000    -0.0000000000   0.000000690   0.000000476          25620          0
   3  2  0      -76.0267610000    -0.0000000000   0.000000191   0.000000198          25620          0

          -----------------
          DENSITY CONVERGED
          -----------------
     TIME TO FORM FOCK OPERATORS=       0.0 SECONDS (       0.0 SEC/ITER)
     FOCK TIME ON FIRST ITERATION=       0.0, LAST ITERATION=       0.0
     TIME TO SOLVE SCF EQUATIONS=       0.0 SECONDS (       0.0 SEC/ITER)

 FINAL RHF ENERGY IS      -76.0267610000 AFTER   3 ITERATIONS

          ------------
          EIGENVECTORS
          ------------

                      1          2          3          4          5
                  -20.5506    -1.3363    -0.6988    -0.5665    -0.4931
                     A          A          A          A          A   
    1  O  1  S    1.000898  -0.008185  -0.000000   0.002167  -0.000000
    2  O  1  S    0.001171   0.442962  -0.000000  -0.150379  -0.000000
    3  O  1  S   -0.002670   0.376202  -0.000000  -0.349663  -0.000000
    4  O  1  X   -0.000000  -0.000000   0.489896  -0.000000  -0.000000
    5  O  1  Y    0.001761   0.078721  -0.000000   0.545377  -0.000000
    6  O  1  Z   -0.000000  -0.000000  -0.000000  -0.000000   0.631199
    7  O  1  X   -0.000000  -0.000000   0.222139  -0.000000  -0.000000
    8  O  1  Y   -0.000486  -0.012992  -0.000000   0.365322  -0.000000
    9  O  1  Z   -0.000000  -0.000000  -0.000000  -0.000000   0.495679
   10  O  1 XX    0.000113   0.001980  -0.000000  -0.004956  -0.000000
   11  O  1 YY    0.000011   0.001245  -0.000000   0.017869  -0.000000
   12  O  1 ZZ   -0.000124  -0.003225  -0.000000  -0.012913  -0.000000
   13  O  1 XY   -0.000000  -0.000000   0.026787  -0.000000  -0.000000
   14  O  1 XZ   -0.000000  -0.000000  -0.000000  -0.000000  -0.000000
   15  O  1 YZ   -0.000000  -0.000000  -0.000000  -0.000000   0.018199
   16  H  2  S   -0.000237   0.193316  -0.327823   0.206447  -0.000000
   17  H  2  S    0.000421   0.010102  -0.089938   0.040465  -0.000000
   18  H  2  X   -0.000569   0.037277  -0.023311   0.031762  -0.000000
   19  H  2  Y    0.000481  -0.020475   0.032662   0.007509  -0.000000
   20  H  2  Z   -0.000000  -0.000000  -0.000000  -0.000000   0.031052
   21  H  3  S   -0.000237   0.193316   0.327823   0.206447  -0.000000
   22  H  3  S    0.000421   0.010102   0.089938   0.040465  -0.000000
   23  H  3  X    0.000569  -0.037277  -0.023311  -0.031762  -0.000000
   24  H  3  Y    0.000481  -0.020475  -0.032662   0.007509  -0.000000
   25  H  3  Z   -0.000000  -0.000000  -0.000000  -0.000000   0.031052

                      6          7          8          9         10
                    0.1854     0.2561     0.7887     0.8538     1.1636
                     A          A          A          A          A   
    1  O  1  S   -0.052051   0.000000   0.000000  -0.065334   0.003230
    2  O  1  S    0.072600   0.000000   0.000000  -0.256081   0.114917
    3  O  1  S    1.001985   0.000000   0.000000   0.320232   0.747223
    4  O  1  X   -0.000000   0.283391  -0.268059  -0.000000   0.000000
    5  O  1  Y    0.190790   0.000000   0.000000  -0.329422  -0.754486
    6  O  1  Z   -0.000000   0.000000   0.000000  -0.000000   0.000000
    7  O  1  X   -0.000000   0.670942  -0.460002  -0.000000   0.000000
    8  O  1  Y    0.337337   0.000000   0.000000   0.009535   1.278292
    9  O  1  Z   -0.000000   0.000000   0.000000  -0.000000   0.000000
   10  O  1 XX    0.004847   0.000000   0.000000   0.092126  -0.012287
   11  O  1 YY    0.007537   0.000000   0.000000   0.000980   0.012850
   12  O  1 ZZ   -0.012383   0.000000   0.000000  -0.093106  -0.000563
   13  O  1 XY   -0.000000   0.021208   0.111665  -0.000000   0.000000
   14  O  1 XZ   -0.000000   0.000000   0.000000  -0.000000   0.000000
   15  O  1 YZ   -0.000000   0.000000   0.000000  -0.000000   0.000000
   16  H  2  S   -0.059062   0.026129  -0.944267   0.787914  -0.545988
   17  H  2  S   -0.828977   1.443232   0.687296  -0.548202  -0.112932
   18  H  2  X   -0.017496   0.020784   0.073808  -0.295576  -0.084050
   19  H  2  Y    0.016301  -0.017098  -0.152639   0.059279   0.251260
   20  H  2  Z   -0.000000   0.000000   0.000000  -0.000000   0.000000
   21  H  3  S   -0.059062  -0.026129   0.944267   0.787914  -0.545988
   22  H  3  S   -0.828977  -1.443232  -0.687296  -0.548202  -0.112932
   23  H  3  X    0.017496   0.020784   0.073808   0.295576   0.084050
   24  H  3  Y    0.016301   0.017098   0.152639   0.059279   0.251260
   25  H  3  Z   -0.000000   0.000000   0.000000  -0.000000   0.000000

                     11         12         13         14         15
                    1.2004     1.2534     1.4444     1.4762     1.6743
                     A          A          A          A          A   
    1  O  1  S    0.000000  -0.000000   0.201747  -0.000000  -0.000000
    2  O  1  S    0.000000  -0.000000   0.528735  -0.000000  -0.000000
    3  O  1  S    0.000000  -0.000000  -0.504701  -0.000000  -0.000000
    4  O  1  X    0.000000  -0.734456  -0.000000  -0.000000  -0.000000
    5  O  1  Y    0.000000  -0.000000  -0.132873  -0.000000  -0.000000
    6  O  1  Z   -0.967829  -0.000000  -0.000000  -0.000000  -0.018935
    7  O  1  X    0.000000   1.763415  -0.000000  -0.000000  -0.000000
    8  O  1  Y    0.000000  -0.000000   0.740611  -0.000000  -0.000000
    9  O  1  Z    1.024637  -0.000000  -0.000000  -0.000000  -0.634048
   10  O  1 XX    0.000000  -0.000000   0.062931  -0.000000  -0.000000
   11  O  1 YY    0.000000  -0.000000  -0.117379  -0.000000  -0.000000
   12  O  1 ZZ    0.000000  -0.000000   0.054448  -0.000000  -0.000000
   13  O  1 XY    0.000000   0.044422  -0.000000  -0.000000  -0.000000
   14  O  1 XZ    0.000000  -0.000000  -0.000000  -0.131376  -0.000000
   15  O  1 YZ   -0.003474  -0.000000  -0.000000  -0.000000   0.160825
   16  H  2  S    0.000000   0.378918  -0.333802  -0.000000  -0.000000
   17  H  2  S    0.000000   0.824477   0.209114  -0.000000  -0.000000
   18  H  2  X    0.000000   0.302682  -0.330066  -0.000000  -0.000000
   19  H  2  Y    0.000000  -0.186543  -0.544957  -0.000000  -0.000000
   20  H  2  Z    0.008821  -0.000000  -0.000000   0.685573   0.766921
   21  H  3  S    0.000000  -0.378918  -0.333802  -0.000000  -0.000000
   22  H  3  S    0.000000  -0.824477   0.209114  -0.000000  -0.000000
   23  H  3  X    0.000000   0.302682   0.330066  -0.000000  -0.000000
   24  H  3  Y    0.000000   0.186543  -0.544957  -0.000000  -0.000000
   25  H  3  Z    0.008821  -0.000000  -0.000000  -0.685573   0.766921

                     16         17         18         19         20
                    1.8674     1.9343     2.4510     2.4886     3.2852
                     A          A          A          A          A   
    1  O  1  S   -0.724731   0.000000  -0.000000   0.276984  -0.000000
    2  O  1  S   -1.593800   0.000000  -0.000000   0.726583  -0.000000
    3  O  1  S    3.033442   0.000000  -0.000000   0.793975  -0.000000
    4  O  1  X   -0.000000  -0.010438   0.838394   0.000000  -0.000000
    5  O  1  Y    0.108945   0.000000  -0.000000   0.669145  -0.000000
    6  O  1  Z   -0.000000   0.000000  -0.000000   0.000000  -0.011780
    7  O  1  X   -0.000000   0.901015   0.152301   0.000000  -0.000000
    8  O  1  Y    0.967811   0.000000  -0.000000   0.180208  -0.000000
    9  O  1  Z   -0.000000   0.000000  -0.000000   0.000000   0.311280
   10  O  1 XX   -0.036626   0.000000  -0.000000  -0.161503  -0.000000
   11  O  1 YY   -0.114140   0.000000  -0.000000  -0.053021  -0.000000
   12  O  1 ZZ    0.150766   0.000000  -0.000000   0.214523  -0.000000
   13  O  1 XY   -0.000000  -0.029343  -0.138238   0.000000  -0.000000
   14  O  1 XZ   -0.000000   0.000000  -0.000000   0.000000  -0.000000
   15  O  1 YZ   -0.000000   0.000000  -0.000000   0.000000   1.042651
   16  H  2  S   -0.827786   0.387352   0.294323  -0.478207  -0.000000
   17  H  2  S   -0.387848   0.091469   0.330096  -0.159114  -0.000000
   18  H  2  X   -0.372786  -0.471383   0.724188  -0.744359  -0.000000
   19  H  2  Y   -0.022892  -0.693248  -0.554676   0.537041  -0.000000
   20  H  2  Z   -0.000000   0.000000  -0.000000   0.000000  -0.397975
   21  H  3  S   -0.827786  -0.387352  -0.294323  -0.478207  -0.000000
   22  H  3  S   -0.387848  -0.091469  -0.330096  -0.159114  -0.000000
   23  H  3  X    0.372786  -0.471383   0.724188   0.744359  -0.000000
   24  H  3  Y   -0.022892   0.693248   0.554676   0.537041  -0.000000
   25  H  3  Z   -0.000000   0.000000  -0.000000   0.000000  -0.397975

                     21         22         23         24
                    3.3381     3.5097     3.8648     4.1469
                     A          A          A          A   
    1  O  1  S   -0.000000  -0.084171  -0.143702  -0.000000
    2  O  1  S   -0.000000  -0.154160  -0.177745  -0.000000
    3  O  1  S   -0.000000   0.557341   2.267181  -0.000000
    4  O  1  X   -0.000000   0.000000   0.000000   0.467660
    5  O  1  Y   -0.000000   0.018775   0.403975  -0.000000
    6  O  1  Z   -0.000000   0.000000   0.000000  -0.000000
    7  O  1  X   -0.000000   0.000000   0.000000   1.143536
    8  O  1  Y   -0.000000   0.537260   0.921753  -0.000000
    9  O  1  Z   -0.000000   0.000000   0.000000  -0.000000
   10  O  1 XX   -0.000000  -0.694837   0.936180  -0.000000
   11  O  1 YY   -0.000000   1.084201   0.135899  -0.000000
   12  O  1 ZZ   -0.000000  -0.389364  -1.072079  -0.000000
   13  O  1 XY   -0.000000   0.000000   0.000000   1.325302
   14  O  1 XZ    1.065963   0.000000   0.000000  -0.000000
   15  O  1 YZ   -0.000000   0.000000   0.000000  -0.000000
   16  H  2  S   -0.000000  -0.305777  -1.236643   1.084644
   17  H  2  S   -0.000000  -0.037754  -0.191735   0.288383
   18  H  2  X   -0.000000  -0.352212  -0.620413   0.605502
   19  H  2  Y   -0.000000  -0.314969   0.492922  -0.493701
   20  H  2  Z    0.371046   0.000000   0.000000  -0.000000
   21  H  3  S   -0.000000  -0.305777  -1.236643  -1.084644
   22  H  3  S   -0.000000  -0.037754  -0.191735  -0.288383
   23  H  3  X   -0.000000   0.352212   0.620413   0.605502
   24  H  3  Y   -0.000000  -0.314969   0.492922   0.493701
   25  H  3  Z   -0.371046   0.000000   0.000000  -0.000000
 ...... END OF RHF CALCULATION ......
 STEP CPU TIME =     0.02 TOTAL CPU TIME =          0.1 (      0.0 MIN)
 TOTAL WALL CLOCK TIME=          0.4 SECONDS, CPU UTILIZATION IS    18.36%

     ----------------------------------------------------------------
     PROPERTY VALUES FOR THE RHF   SELF-CONSISTENT FIELD WAVEFUNCTION
     ----------------------------------------------------------------

          -----------------
          ENERGY COMPONENTS
          -----------------

         WAVEFUNCTION NORMALIZATION =       1.0000000000

                ONE ELECTRON ENERGY =    -123.1375601715
                TWO ELECTRON ENERGY =      37.9234309548
           NUCLEAR REPULSION ENERGY =       9.1873682166
                                      ------------------
                       TOTAL ENERGY =     -76.0267610000

 ELECTRON-ELECTRON POTENTIAL ENERGY =      37.9234309548
  NUCLEUS-ELECTRON POTENTIAL ENERGY =    -199.1234287893
   NUCLEUS-NUCLEUS POTENTIAL ENERGY =       9.1873682166
                                      ------------------
             TOTAL POTENTIAL ENERGY =    -152.0126296179
               TOTAL KINETIC ENERGY =      75.9858686179
                 VIRIAL RATIO (V/T) =       2.0005381577

  ...... PI ENERGY ANALYSIS ......

 ENERGY ANALYSIS:
            FOCK ENERGY=    -47.2907025242
          BARE H ENERGY=   -123.1375601715
     ELECTRONIC ENERGY =    -85.2141313478
         KINETIC ENERGY=     75.9858686179
          N-N REPULSION=      9.1873682166
           TOTAL ENERGY=    -76.0267631312
        SIGMA PART(1+2)=    -77.6236727873
               (K,V1,2)=     71.4285339418   -180.3713872583     31.3191805292
           PI PART(1+2)=     -7.5904585605
               (K,V1,2)=      4.5573346761    -18.7520415311      6.6042482945
  SIGMA SKELETON, ERROR=    -68.4363045707     -0.0000000000
             MIXED PART= 0.00000E+00 0.00000E+00 0.00000E+00 0.00000E+00
 ...... END OF PI ENERGY ANALYSIS ......

          ---------------------------------------
          MULLIKEN AND LOWDIN POPULATION ANALYSES
          ---------------------------------------

               ----- POPULATIONS IN EACH AO -----
                             MULLIKEN      LOWDIN
              1  O  1  S      2.00176     1.90126
              2  O  1  S      0.83277     0.59257
              3  O  1  S      0.82353     0.50047
              4  O  1  X      0.77232     0.70073
              5  O  1  Y      0.92252     0.87350
              6  O  1  Z      1.12582     1.08251
              7  O  1  X      0.38158     0.53180
              8  O  1  Y      0.60460     0.69016
              9  O  1  Z      0.82916     0.79084
             10  O  1 XX      0.00204     0.18532
             11  O  1 YY      0.00018     0.17767
             12  O  1 ZZ      0.00893     0.17467
             13  O  1 XY      0.00000     0.01789
             14  O  1 XZ      0.00110     0.00000
             15  O  1 YZ      0.00000     0.00024
             16  H  2  S      0.69024     0.55178
             17  H  2  S      0.07000     0.16098
             18  H  2  X      0.03799     0.05773
             19  H  2  Y      0.02664     0.05650
             20  H  2  Z      0.02196     0.06321
             21  H  3  S      0.69024     0.55178
             22  H  3  S      0.07000     0.16098
             23  H  3  X      0.03799     0.05773
             24  H  3  Y      0.02664     0.05650
             25  H  3  Z      0.02196     0.06321

          ----- MULLIKEN ATOMIC OVERLAP POPULATIONS -----
          (OFF-DIAGONAL ELEMENTS NEED TO BE MULTIPLIED BY 2)

             1           2           3

    1    7.5749023
    2    0.3657091   0.5144763
    3    0.3657091  -0.0333457   0.5144763

          TOTAL MULLIKEN AND LOWDIN ATOMIC POPULATIONS
       ATOM         MULL.POP.    CHARGE          LOW.POP.     CHARGE
    1 O             8.306321   -0.306321         8.219603   -0.219603
    2 H             0.846840    0.153160         0.890198    0.109802
    3 H             0.846840    0.153160         0.890198    0.109802

          MULLIKEN SPHERICAL HARMONIC POPULATIONS
       ATOM           S       P       D      F      G      H      I    TOTAL
    1 O             3.66    4.64    0.01   0.00   0.00   0.00   0.00    8.31
    2 H             0.76    0.09    0.00   0.00   0.00   0.00   0.00    0.85
    3 H             0.76    0.09    0.00   0.00   0.00   0.00   0.00    0.85

          ---------------------
          ELECTROSTATIC MOMENTS
          ---------------------

 POINT   1           X           Y           Z (BOHR)    CHARGE
                 0.000000    0.000028    0.000000        0.00 (A.U.)
         DX          DY          DZ         /D/  (DEBYE)
    -0.000000    2.057620    0.000000    2.057620
 ...... END OF PROPERTY EVALUATION ......
 STEP CPU TIME =     0.00 TOTAL CPU TIME =          0.1 (      0.0 MIN)
 TOTAL WALL CLOCK TIME=          0.4 SECONDS, CPU UTILIZATION IS    18.59%

 DETERMINANT CI OPTIONS   NRNFG   NPFLG
 INTEGRAL TRANSFORMATION    1       0
 DIAGONALIZE HAMILTONIAN    1       0
 FORM 1E- DENSITY MATRIX    1       0
 FORM 2E- DENSITY MATRIX    0       0

     --------------------------------------------------
          AMES LABORATORY DETERMINANTAL FULL CI
     PROGRAM WRITTEN BY JOE IVANIC AND KLAUS RUEDENBERG
     --------------------------------------------------

 THE POINT GROUP                  =   C1      
 THE STATE SYMMETRY               =   A       
 NUMBER OF CORE ORBITALS          =    1
 NUMBER OF ACTIVE ORBITALS        =   23
 NUMBER OF ALPHA ELECTRONS        =    5 (   4 ACTIVE)
 NUMBER OF BETA ELECTRONS         =    5 (   4 ACTIVE)
 NUMBER OF OCCUPIED ORBITALS      =   24
 NUMBER OF CI STATES REQUESTED    =    1
 NUMBER OF CI STARTING VECTORS    =    1
 MAX. NO. OF CI EXPANSION VECTORS =   10
 SIZE OF INITIAL CI GUESS MATRIX  =  300
 MAX. NO. OF CI ITERS/STATE       =  100
 CI DIAGONALIZATION CRITERION     = 1.00E-06
 CI PROPERTIES WILL BE FOUND FOR ROOT NUMBER   1
 1E- DENSITY MATRIX OPTIONS ARE 1

 CORRELATION ENERGY ANALYSIS      =    F

 SYMMETRIES FOR THE   1 CORE,  23 ACTIVE ARE

     CORE= A   

   ACTIVE= A     A     A     A     A     A     A     A     A     A   
           A     A     A     A     A     A     A     A     A     A   
           A     A     A   

     --------------------------------------------
     PARTIAL TWO ELECTRON INTEGRAL TRANSFORMATION
     --------------------------------------------

 NUMBER OF CORE MOLECULAR ORBITALS     =    1
 NUMBER OF OCCUPIED MOLECULAR ORBITALS =   24
 TOTAL NUMBER OF MOLECULAR ORBITALS    =   24
 TOTAL NUMBER OF ATOMIC ORBITALS       =   25
 THRESHOLD FOR KEEPING TRANSFORMED 2E- INTEGRALS = 1.000E-09
 AO INTEGRALS WILL BE CALCULATED IN DIRECT MODE...
 EVALUATING THE FROZEN CORE ENERGY...
 ----- FROZEN CORE ENERGY =       -61.3145611767

 PLAN A: REQUIREMENTS FOR FULLY IN-MEMORY TRANSFORMATION:
 # OF WORDS AVAILABLE =           1755359999
 # OF WORDS NEEDED    =               295604

 CHOOSING IN MEMORY PARTIAL TRANSFORMATION...
 DIRECT TRANSFORMATION SKIPS AO INTEGRAL STORAGE ON DISK.
 TOTAL NUMBER OF TRANSFORMED 2E- INTEGRALS KEPT =        10398
 ... END OF INTEGRAL TRANSFORMATION ...
 STEP CPU TIME =     0.01 TOTAL CPU TIME =          0.1 (      0.0 MIN)
 TOTAL WALL CLOCK TIME=          0.4 SECONDS, CPU UTILIZATION IS    19.59%

     --------------------------------------------------
          AMES LABORATORY DETERMINANTAL FULL CI
     PROGRAM WRITTEN BY JOE IVANIC AND KLAUS RUEDENBERG
     --------------------------------------------------

 THE NUMBER OF DETERMINANTS HAVING SPACE SYMMETRY A  
 IN POINT GROUP C1   WITH SZ=  0.0 IS       78411025
 WHICH INCLUDES       18818646 CSFS WITH S=  0.0
 WHICH INCLUDES       34052788 CSFS WITH S=  1.0
 WHICH INCLUDES       19900980 CSFS WITH S=  2.0
 WHICH INCLUDES        5148297 CSFS WITH S=  3.0
 WHICH INCLUDES         490314 CSFS WITH S=  4.0
 THE DETERMINANT FULL CI REQUIRES      1647652502 WORDS
 INITIAL CI VECTOR GUESS TIME  :          6.3
 INITIAL FULL CI ITERATION TIME:        187.8

 ITERATION      ENERGY           GRADIENT
     0      -76.0424541621     0.93802471
     1      -76.2263017512     0.30396775
     2      -76.2403850843     0.08886644
     3      -76.2415496660     0.02703356
     4      -76.2416624562     0.01039170
     5      -76.2416797310     0.00391882
     6      -76.2416824545     0.00161739
     7      -76.2416829311     0.00071210
     8      -76.2416830135     0.00028829
     9      -76.2416830251     0.00010605
    10      -76.2416830250     0.00004003
    11      -76.2416830254     0.00001970
    12      -76.2416830255     0.00000741
    13      -76.2416830255     0.00000302
    14      -76.2416830255     0.00000143
    15      -76.2416830255     0.00000065

 CONVERGED STATE    1 ENERGY=      -76.2416830255 IN   15 ITERS

 ALL STATES CONVERGED.

 CI EIGENVECTORS WILL BE LABELED IN GROUP=C1      
 PRINTING CI COEFFICIENTS LARGER THAN 5.000E-02

 STATE   1  ENERGY=       -76.2416830255  S=  0.00  SZ=  0.00  SPACE SYM=A   

         ALPHA           |         BETA            | CI COEFFICIENT
-------------------------|-------------------------|---------------
 11110000000000000000000 | 11110000000000000000000 |   0.9706174941
 11100000010000000000000 | 11100000010000000000000 |  -0.0503379737
 ..... DONE WITH DETERMINANT CI COMPUTATION .....
 STEP CPU TIME =  3050.13 TOTAL CPU TIME =       3050.2 (     50.8 MIN)
 TOTAL WALL CLOCK TIME=       3055.6 SECONDS, CPU UTILIZATION IS    99.82%

     ---------------------------
     ONE PARTICLE DENSITY MATRIX
     ---------------------------

 DENSITY MATRIX WILL BE SAVED FOR   1-TH STATE WITH S= 0.00

 CI EIGENSTATE   1 TOTAL ENERGY =      -76.2416830255

          NATURAL ORBITALS IN ATOMIC ORBITAL BASIS
          ----------------------------------------

                      1          2          3          4          5
                    2.0000     1.9840     1.9716     1.9646     1.9617
                     A          A          A          A          A   
    1  O  1  S    1.000898  -0.007027   0.000000   0.001664   0.000000
    2  O  1  S    0.001171   0.470903   0.000000  -0.001790   0.000000
    3  O  1  S   -0.002670   0.461298   0.000000  -0.222180   0.000000
    4  O  1  X   -0.000000  -0.000000   0.000000  -0.000000   0.496395
    5  O  1  Y    0.001761  -0.091373   0.000000   0.545035   0.000000
    6  O  1  Z   -0.000000  -0.000000   0.629557  -0.000000   0.000000
    7  O  1  X   -0.000000  -0.000000   0.000000  -0.000000   0.210621
    8  O  1  Y   -0.000486  -0.130195   0.000000   0.336045   0.000000
    9  O  1  Z   -0.000000  -0.000000   0.495615  -0.000000   0.000000
   10  O  1 XX    0.000113   0.004198   0.000000  -0.004801   0.000000
   11  O  1 YY    0.000011  -0.004456   0.000000   0.017657   0.000000
   12  O  1 ZZ   -0.000124   0.000258   0.000000  -0.012856   0.000000
   13  O  1 XY   -0.000000  -0.000000   0.000000  -0.000000   0.025820
   14  O  1 XZ   -0.000000  -0.000000   0.000000  -0.000000   0.000000
   15  O  1 YZ   -0.000000  -0.000000   0.018522  -0.000000   0.000000
   16  H  2  S   -0.000237   0.119453   0.000000   0.260017  -0.330124
   17  H  2  S    0.000421  -0.001089   0.000000   0.045334  -0.096822
   18  H  2  X   -0.000569   0.025095   0.000000   0.038842  -0.019465
   19  H  2  Y    0.000481  -0.022051   0.000000   0.004486   0.030146
   20  H  2  Z   -0.000000  -0.000000   0.033178  -0.000000   0.000000
   21  H  3  S   -0.000237   0.119453   0.000000   0.260017   0.330124
   22  H  3  S    0.000421  -0.001089   0.000000   0.045334   0.096822
   23  H  3  X    0.000569  -0.025095   0.000000  -0.038842  -0.019465
   24  H  3  Y    0.000481  -0.022051   0.000000   0.004486  -0.030146
   25  H  3  Z   -0.000000  -0.000000   0.033178  -0.000000   0.000000

                      6          7          8          9         10
                    0.0286     0.0264     0.0178     0.0120     0.0063
                     A          A          A          A          A   
    1  O  1  S    0.000000   0.096362   0.000000   0.438864  -0.000000
    2  O  1  S    0.000000   0.395643   0.000000   1.138433  -0.000000
    3  O  1  S    0.000000   0.338904   0.000000  -0.854888  -0.000000
    4  O  1  X    0.865895  -0.000000   0.000000  -0.000000  -0.326599
    5  O  1  Y    0.000000   0.808257   0.000000  -0.507090  -0.000000
    6  O  1  Z    0.000000  -0.000000   0.964904  -0.000000  -0.000000
    7  O  1  X    0.063859  -0.000000   0.000000  -0.000000   0.824320
    8  O  1  Y    0.000000  -0.159808   0.000000   0.755804  -0.000000
    9  O  1  Z    0.000000  -0.000000  -0.951308  -0.000000  -0.000000
   10  O  1 XX    0.000000  -0.042158   0.000000  -0.128505  -0.000000
   11  O  1 YY    0.000000  -0.011892   0.000000   0.049866  -0.000000
   12  O  1 ZZ    0.000000   0.054049   0.000000   0.078639  -0.000000
   13  O  1 XY   -0.057169  -0.000000   0.000000  -0.000000  -0.576609
   14  O  1 XZ    0.000000  -0.000000   0.000000  -0.000000  -0.000000
   15  O  1 YZ    0.000000  -0.000000  -0.038219  -0.000000  -0.000000
   16  H  2  S    0.576428  -0.548661   0.000000  -0.236014   0.434454
   17  H  2  S    0.187287  -0.107102   0.000000   0.042683  -0.216270
   18  H  2  X    0.024503  -0.031996   0.000000   0.017302   0.128450
   19  H  2  Y   -0.003330  -0.009467   0.000000   0.093684   0.016527
   20  H  2  Z    0.000000  -0.000000  -0.087338  -0.000000  -0.000000
   21  H  3  S   -0.576428  -0.548661   0.000000  -0.236014  -0.434454
   22  H  3  S   -0.187287  -0.107102   0.000000   0.042683   0.216270
   23  H  3  X    0.024503   0.031996   0.000000  -0.017302   0.128450
   24  H  3  Y    0.003330  -0.009467   0.000000   0.093684  -0.016527
   25  H  3  Z    0.000000  -0.000000  -0.087338  -0.000000  -0.000000

                     11         12         13         14         15
                    0.0060     0.0054     0.0047     0.0045     0.0013
                     A          A          A          A          A   
    1  O  1  S   -0.305752  -0.000000   0.123556   0.000000  -0.000000
    2  O  1  S   -0.690601  -0.000000   0.261195   0.000000  -0.000000
    3  O  1  S    1.097940  -0.000000  -0.587890   0.000000  -0.000000
    4  O  1  X    0.000000  -0.000000  -0.000000   0.000000  -0.458364
    5  O  1  Y   -0.002414  -0.000000   0.058713   0.000000  -0.000000
    6  O  1  Z    0.000000  -0.000000  -0.000000   0.067861  -0.000000
    7  O  1  X    0.000000  -0.000000  -0.000000   0.000000   1.006214
    8  O  1  Y    0.197114  -0.000000  -0.492717   0.000000  -0.000000
    9  O  1  Z    0.000000  -0.000000  -0.000000  -0.287538  -0.000000
   10  O  1 XX   -0.588194  -0.000000  -0.000870   0.000000  -0.000000
   11  O  1 YY    0.319101  -0.000000   0.718911   0.000000  -0.000000
   12  O  1 ZZ    0.269093  -0.000000  -0.718041   0.000000  -0.000000
   13  O  1 XY    0.000000  -0.000000  -0.000000   0.000000   0.715921
   14  O  1 XZ    0.000000   0.780950  -0.000000   0.000000  -0.000000
   15  O  1 YZ    0.000000  -0.000000  -0.000000   0.879592  -0.000000
   16  H  2  S   -0.426384  -0.000000   0.310652   0.000000   0.650441
   17  H  2  S    0.074793  -0.000000  -0.050854   0.000000   0.098984
   18  H  2  X    0.071941  -0.000000   0.185927   0.000000  -0.006969
   19  H  2  Y    0.237833  -0.000000   0.091617   0.000000   0.318417
   20  H  2  Z    0.000000  -0.291481  -0.000000   0.214612  -0.000000
   21  H  3  S   -0.426384  -0.000000   0.310652   0.000000  -0.650441
   22  H  3  S    0.074793  -0.000000  -0.050854   0.000000  -0.098984
   23  H  3  X   -0.071941  -0.000000  -0.185927   0.000000  -0.006969
   24  H  3  Y    0.237833  -0.000000   0.091617   0.000000  -0.318417
   25  H  3  Z    0.000000   0.291481  -0.000000   0.214612  -0.000000

                     16         17         18         19         20
                    0.0013     0.0008     0.0008     0.0007     0.0006
                     A          A          A          A          A   
    1  O  1  S   -0.347898  -0.000000   0.000000   0.326467  -0.000000
    2  O  1  S   -0.678517  -0.000000   0.000000   0.765869  -0.000000
    3  O  1  S    1.743010  -0.000000   0.000000   0.190525  -0.000000
    4  O  1  X   -0.000000  -0.000000  -0.627155   0.000000  -0.000000
    5  O  1  Y   -0.107795  -0.000000   0.000000   0.584849  -0.000000
    6  O  1  Z   -0.000000  -0.000000   0.000000   0.000000   0.060133
    7  O  1  X   -0.000000  -0.000000  -0.267667   0.000000  -0.000000
    8  O  1  Y    1.030407  -0.000000   0.000000   0.127110  -0.000000
    9  O  1  Z   -0.000000  -0.000000   0.000000   0.000000  -0.749128
   10  O  1 XX    0.776880  -0.000000   0.000000   0.214754  -0.000000
   11  O  1 YY   -0.112556  -0.000000   0.000000   0.145093  -0.000000
   12  O  1 ZZ   -0.664324  -0.000000   0.000000  -0.359846  -0.000000
   13  O  1 XY   -0.000000  -0.000000  -0.757840   0.000000  -0.000000
   14  O  1 XZ   -0.000000   0.737329   0.000000   0.000000  -0.000000
   15  O  1 YZ   -0.000000  -0.000000   0.000000   0.000000  -0.581243
   16  H  2  S   -1.241001  -0.000000  -1.003463  -0.726120  -0.000000
   17  H  2  S    0.166556  -0.000000   0.891074   0.427901  -0.000000
   18  H  2  X   -0.040450  -0.000000  -0.478486  -0.705872  -0.000000
   19  H  2  Y    0.134420  -0.000000   0.500585   0.431524  -0.000000
   20  H  2  Z   -0.000000   0.722996   0.000000   0.000000   0.832350
   21  H  3  S   -1.241001  -0.000000   1.003463  -0.726120  -0.000000
   22  H  3  S    0.166556  -0.000000  -0.891074   0.427901  -0.000000
   23  H  3  X    0.040450  -0.000000  -0.478486   0.705872  -0.000000
   24  H  3  Y    0.134420  -0.000000  -0.500585   0.431524  -0.000000
   25  H  3  Z   -0.000000  -0.722996   0.000000   0.000000   0.832350

                     21         22         23         24
                    0.0005     0.0005     0.0001     0.0000
                     A          A          A          A   
    1  O  1  S   -0.183292  -0.000000  -0.324888  -0.000000
    2  O  1  S   -0.356149  -0.000000  -0.559173  -0.000000
    3  O  1  S    0.801648  -0.000000   3.330214  -0.000000
    4  O  1  X   -0.000000  -0.272783   0.000000   0.269497
    5  O  1  Y   -0.123208  -0.000000   0.265512  -0.000000
    6  O  1  Z   -0.000000  -0.000000   0.000000  -0.000000
    7  O  1  X   -0.000000   1.052848   0.000000   1.744391
    8  O  1  Y    1.023254  -0.000000   1.185005  -0.000000
    9  O  1  Z   -0.000000  -0.000000   0.000000  -0.000000
   10  O  1 XX   -0.531254  -0.000000   0.321109  -0.000000
   11  O  1 YY    0.749208  -0.000000   0.086432  -0.000000
   12  O  1 ZZ   -0.217954  -0.000000  -0.407541  -0.000000
   13  O  1 XY   -0.000000   0.005980   0.000000   0.607200
   14  O  1 XZ   -0.000000  -0.000000   0.000000  -0.000000
   15  O  1 YZ   -0.000000  -0.000000   0.000000  -0.000000
   16  H  2  S   -0.530764   0.400386  -0.764559   0.579801
   17  H  2  S    0.008465   0.088990  -1.012640   1.593953
   18  H  2  X   -0.449135  -0.625675  -0.814410   0.757217
   19  H  2  Y   -0.634690  -0.511795   0.560389  -0.690182
   20  H  2  Z   -0.000000  -0.000000   0.000000  -0.000000
   21  H  3  S   -0.530764  -0.400386  -0.764559  -0.579801
   22  H  3  S    0.008465  -0.088990  -1.012640  -1.593953
   23  H  3  X    0.449135  -0.625675   0.814410   0.757217
   24  H  3  Y   -0.634690   0.511795   0.560389   0.690182
   25  H  3  Z   -0.000000  -0.000000   0.000000  -0.000000
 ..... DONE WITH ONE PARTICLE DENSITY MATRIX .....
 STEP CPU TIME =    21.53 TOTAL CPU TIME =       3071.7 (     51.2 MIN)
 TOTAL WALL CLOCK TIME=       3077.2 SECONDS, CPU UTILIZATION IS    99.82%

     --------------------------------------------------------
     ALDET CI PROPERTIES...FOR THE WAVEFUNCTION OF STATE    1
               USING THE EXPECTATION VALUE DENSITY
     --------------------------------------------------------

          -----------------
          ENERGY COMPONENTS
          -----------------

         WAVEFUNCTION NORMALIZATION =       1.0000000000

                ONE ELECTRON ENERGY =    -122.9158218507
                TWO ELECTRON ENERGY =      37.4867706086
           NUCLEAR REPULSION ENERGY =       9.1873682166
                                      ------------------
                       TOTAL ENERGY =     -76.2416830255

 ELECTRON-ELECTRON POTENTIAL ENERGY =      37.4867706086
  NUCLEUS-ELECTRON POTENTIAL ENERGY =    -199.1057005034
   NUCLEUS-NUCLEUS POTENTIAL ENERGY =       9.1873682166
                                      ------------------
             TOTAL POTENTIAL ENERGY =    -152.4315616782
               TOTAL KINETIC ENERGY =      76.1898786527
                 VIRIAL RATIO (V/T) =       2.0006799377

          ---------------------------------------
          MULLIKEN AND LOWDIN POPULATION ANALYSES
          ---------------------------------------

               ----- POPULATIONS IN EACH AO -----
                             MULLIKEN      LOWDIN
              1  O  1  S      2.00176     1.90148
              2  O  1  S      0.83919     0.59642
              3  O  1  S      0.80859     0.49680
              4  O  1  X      0.78295     0.70752
              5  O  1  Y      0.91964     0.86897
              6  O  1  Z      1.11367     1.07160
              7  O  1  X      0.35593     0.51442
              8  O  1  Y      0.58755     0.67792
              9  O  1  Z      0.82723     0.78882
             10  O  1 XX      0.00600     0.18681
             11  O  1 YY      0.00401     0.17852
             12  O  1 ZZ      0.01225     0.17611
             13  O  1 XY      0.00412     0.02236
             14  O  1 XZ      0.00514     0.00406
             15  O  1 YZ      0.00000     0.00423
             16  H  2  S      0.69803     0.55506
             17  H  2  S      0.07973     0.16563
             18  H  2  X      0.03559     0.05704
             19  H  2  Y      0.02738     0.05825
             20  H  2  Z      0.02526     0.06599
             21  H  3  S      0.69803     0.55506
             22  H  3  S      0.07973     0.16563
             23  H  3  X      0.03559     0.05704
             24  H  3  Y      0.02738     0.05825
             25  H  3  Z      0.02526     0.06599

          ----- MULLIKEN ATOMIC OVERLAP POPULATIONS -----
          (OFF-DIAGONAL ELEMENTS NEED TO BE MULTIPLIED BY 2)

             1           2           3

    1    7.5842301
    2    0.3418988   0.5599487
    3    0.3418988  -0.0358612   0.5599487

          TOTAL MULLIKEN AND LOWDIN ATOMIC POPULATIONS
       ATOM         MULL.POP.    CHARGE          LOW.POP.     CHARGE
    1 O             8.268028   -0.268028         8.196050   -0.196050
    2 H             0.865986    0.134014         0.901975    0.098025
    3 H             0.865986    0.134014         0.901975    0.098025

          MULLIKEN SPHERICAL HARMONIC POPULATIONS
       ATOM           S       P       D      F      G      H      I    TOTAL
    1 O             3.65    4.59    0.03   0.00   0.00   0.00   0.00    8.27
    2 H             0.78    0.09    0.00   0.00   0.00   0.00   0.00    0.87
    3 H             0.78    0.09    0.00   0.00   0.00   0.00   0.00    0.87

          ---------------------
          ELECTROSTATIC MOMENTS
          ---------------------

 POINT   1           X           Y           Z (BOHR)    CHARGE
                 0.000000    0.000028    0.000000        0.00 (A.U.)
         DX          DY          DZ         /D/  (DEBYE)
    -0.000000    1.933584    0.000000    1.933584
 ...... END OF PROPERTY EVALUATION ......
 STEP CPU TIME =     0.00 TOTAL CPU TIME =       3071.7 (     51.2 MIN)
 TOTAL WALL CLOCK TIME=       3077.2 SECONDS, CPU UTILIZATION IS    99.82%
           1647653399  WORDS OF DYNAMIC MEMORY USED
 EXECUTION OF GAMESS TERMINATED NORMALLY 21:47:06 26-JUL-2025    
 DDI: 263640 bytes (0.3 MB / 0 MWords) used by master data server.

 ----------------------------------------
 CPU timing information for all processes
 ========================================
 0: 3068.839 + 3.326 = 3072.165
 ----------------------------------------
 ddikick.x: exited gracefully.
----- accounting info -----
Files used on the parent node dodecaedro were:
-rw-r--r-- 1 paulo paulo     21121 Jul 26 21:47 /home/paulo/gamess/restart/H2O_CISDTQ5678.dat
-rw-r--r-- 1 paulo paulo      2509 Jul 26 20:55 /home/paulo/gamess/restart/H2O_CISDTQ5678.F05
-rw-r--r-- 1 paulo paulo    182232 Jul 26 20:55 /home/paulo/gamess/restart/H2O_CISDTQ5678.F09
-rw-r--r-- 1 paulo paulo   1897760 Jul 26 21:47 /home/paulo/gamess/restart/H2O_CISDTQ5678.F10
-rw-r--r-- 1 paulo paulo 627288232 Jul 26 21:46 /home/paulo/gamess/restart/H2O_CISDTQ5678.F12
-rw-r--r-- 1 paulo paulo    130880 Jul 26 20:55 /home/paulo/gamess/restart/H2O_CISDTQ5678.F26R
-rw-r--r-- 1 paulo paulo         0 Jul 26 20:55 /home/paulo/gamess/restart/H2O_CISDTQ5678.F27R
Sat Jul 26 09:47:08 PM WEST 2025
0.115u 0.144s 51:19.00 0.0%	0+0k 608+8io 1pf+0w
