1 : H2O_CCSD_T.inp
2 : 00
3 : 1
----- GAMESS execution script 'rungms' -----
This job is running on host dodecaedro
under operating system Linux at Tue Jul 29 11:51:35 AM WEST 2025
Available scratch disk space (Kbyte units) at beginning of the job is
Filesystem      1K-blocks       Used  Available Use% Mounted on
/dev/sdb1      5813177436 4498862096 1021272880  82% /home
GAMESS temporary binary files will be written to /home/paulo/gamess/restart
GAMESS supplementary output files will be written to /home/paulo/gamess/restart
Copying input file /home/paulo/WORK/H2O-CCD/H2O_CCSD_T.inp to your run's scratch directory...
removed '/home/paulo/gamess/restart/H2O_CCSD_T.dat'

 Distributed Data Interface kickoff program.
 Initiating 1 compute processes on 1 nodes to run the following command:
 /home/paulo/WORK/BUILD/GAMESS/Nov2023/gamess/gamess.00.x H2O_CCSD_T 

          *******************************************************
          *                                                     *
          *          GAMESS VERSION = 30 SEP 2023 (R2)          *
          *                                                     *
          *              doi.org/10.1063/5.0005188              *
          *                                                     *
          **************** 64 BIT LINUX VERSION *****************

  GAMESS HAS BEEN MADE POSSIBLE WITH IMPORTANT CONTRIBUTIONS FROM
  THE FOLLOWING INDIVIDUALS (IN ALPHABETICAL ORDER):

     IVANA ADAMOVIC, CHRISTINE AIKENS, TOMOKO AKAMA,
     MELISA ALKAN, YURI ALEXEEV, YURIKO AOKI, POOJA ARORA,
     TOSHIO ASADA, ANDREY ASADCHEV, KIM K. BALDRIDGE,
     PRADIPTA BANDYOPADHYAY, TAYLOR A. BARNES, MARIA BARYSZ,
     ROB BELL, JONATHAN BENTZ, COLLEEN BERTONI,
     JERRY A. BOATZ, BRETT BODE, KURT BRORSEN, KURT R. BRORSEN,
     LAIMUTIS BYTAUTAS, CALEB CARLIN, LAURA CARRINGTON,
     GALINA CHABAN, BENOIT CHAMPAGNE, WEI CHEN, MAHITO CHIBA,
     DAN CHIPMAN, CHEOL HO CHOI, TANNER CULPITT,
     DIPAYAN DATTA, PAUL DAY, ALBERT DEFUSCO,
     NUWAN DESILVA, J. EMILIANO DEUSTUA,
     TIM DUDLEY, MICHEL DUPUIS, STEVEN T. ELBERT,
     DMITRI FEDOROV, KATHERINE FERRERAS, MICHAEL FILATOV,
     ALEX FINDLATER,GRAHAM FLETCHER, MARK FREITAG,
     CHRISTIAN FRIEDL, DAVID GARMER, 
     IGOR S. GERASIMOV, KURT GLAESEMANN,
     MARK S. GORDON, JEFFREY R. GOUR, FENG LONG GU,
     EMILIE B. GUIDEZ, ANASTASIA GUNINA, SHARON HAMMES-SCHIFFER,
     MASATAKE HARUTA, KIMIHIKO HIRAO, YASUHIRO IKABATA,
     TZVETELIN IORDANOV, STEPHAN IRLE, KAZUYA ISHIMURA,
     JOE IVANIC, FRANK JENSEN, JAN H. JENSEN, VISVALDAS KAIRYS,
     MUNEAKI KAMIYA, MICHIO KATOUDA, NAOAKI KAWAKAMI, DAN KEMP,
     BERNARD KIRTMAN, KAZUO KITAURA, MARIUSZ KLOBUKOWSKI,
     MASATO KOBAYASHI, KONSTANTIN KOMAROV, PRAKASHAN KORAMBATH,
     JACEK KORCHOWIEC, SHIRO KOSEKI, KAROL KOWALSKI,
     JIMMY KROMANN, STANISLAW A. KUCHARSKI, HENRY KURTZ,
     SAROM SOK LEANG, SEUNGHOON LEE, HUI LI, SHUHUA LI, WEI LI,
     JESSE J. LUTZ, ALEKSANDR O. LYKHIN,
     ILIAS MAGOULAS, MARCIN MAKOWSKI,
     JOANI MATO, NIKITA MATSUNAGA, BENEDETTA MENNUCCI,
     GRANT MERRILL, NORIYUKI MINEZAWA, VLADIMIR MIRONOV,
     EISAKU MIYOSHI, JOHN A. MONTGOMERY JR., HIROTOSHI MORI,
     JONATHAN MULLIN, MONIKA MUSIAL, SHIGERU NAGASE,
     TAKESHI NAGATA, HIROMI NAKAI, TAKAHITO NAKAJIMA,
     YUYA NAKAJIMA, HARUYUKI NAKANO, HIROYA NAKATA, SEAN NEDD,
     HEATHER NETZLOFF, KIET A. NGUYEN, YOSHIO NISHIMOTO,
     BOSILJKA NJEGIC, RYAN OLSON, MIKE PAK, ROBERTO PEVERATI,
     BUU PHAM, PIOTR PIECUCH, ANNA POMOGAEVA, DAVID POOLE,
     SPENCER PRUITT, OLIVIER QUINET, LUKE ROSKOP,
     KLAUS RUEDENBERG, ANDREW SAND, TOSAPORN SATTASATHUCHANA,
     NOZOMI SAWADA, MICHAEL W. SCHMIDT, PATRICK E. SCHNEIDER,
     JUNJI SEINO, PRACHI SHARMA, JUN SHEN, JIM SHOEMAKER,
     GEORGE SCHOENDORFF, YINAN SHU, DEJUN SI, JONATHAN SKONE,
     LYUDMILA SLIPCHENKO, TONY SMITH, JIE SONG, MARK SPACKMAN,
     CASPER STEINMANN, WALT STEVENS, PEIFENG SU, SHUJUN SU,
     CHET SWALINA, CHINAMI TAKASHIMA, TETSUYA TAKETSUGU,
     ZHEN TAO, NANDUN THELLAMUREGE, SEIKEN TOKURA,
     JACOPO TOMASI, TSUGUKI TOUMA, TAKAO TSUNEDA, HIROAKI UMEDA,
     JORGE LUIS GALVEZ VALLEJO, YALI WANG, SIMON WEBB,
     AARON WEST, THERESA L. WINDUS, MARTA WLOCH,
     PENG XU, KIYOSHI YAGI, SUSUMU YANAGISAWA, YANG YANG,
     SOOHAENG YOO, TAKESHI YOSHIKAWA, FEDERICO ZAHARIEV,
     TOBY ZENG

  WHO ARE SUPPORTED BY THEIR INSTITUTION/UNIVERSITY/COMPANY/GROUP
  (IN ALPHABETICAL ORDER):

     EP ANALYTICS,
     FACULTES UNIVERSITAIRES NOTRE-DAME DE LA PAIX,
     INSTITUTE FOR MOLECULAR SCIENCE, IOWA STATE UNIVERSITY,
     JACKSON STATE UNIVERSITY, JOHANNES KEPLER UNIVERSITY LINZ,
     KYUNGPOOK NATIONAL UNIVERSITY
     KYUSHU UNIVERSITY, MICHIGAN STATE UNIVERSITY,
     MIE UNIVERSITY, THE MOLECULAR SCIENCES SOFTWARE INSTITUTE,
     MOSCOW STATE UNIVERSITY,
     N. COPERNICUS UNIVERSITY, NAGOYA UNIVERSITY,
     NANJING UNIVERSITY, NAT. INST. OF ADVANCED INDUSTRIAL
     SCIENCE AND TECHNOLOGY, NATIONAL INST. OF STANDARDS AND
     TECHNOLOGY, NESMEYANOV INSTITUTE OF ORGANOELEMENT COMPOUNDS
     OF RUSSIAN ACADEMY OF SCIENCES, OSAKA PREFECTURE UNIVERSITY,
     PENNSYLVANIA STATE UNIVERSITY, TOKYO INSTITUTE OF TECHNOLOGY,
     UNIVERSITY OF AARHUS, UNIVERSITY OF ALBERTA,
     UNIVERSITY OF CALIFORNIA AT SANTA BARBARA,
     UNIVERSITY OF COPENHAGEN, UNIVERSITY OF IOWA,
     UNIVERSITY OF MEMPHIS, UNIVERSITY OF MINNESOTA,
     UNIVERSITY OF NEBRASKA, UNIVERSITY OF NEW ENGLAND,
     UNIVERSITY OF NOTRE DAME, UNIVERSITY OF PISA,
     UNIVERSITY OF SILESIA, UNIVERSITY OF TOKYO,
     UNIVERSITY OF ZURICH, WASEDA UNIVERSITY,
     YALE UNIVERSITY

  GAMESS SOFTWARE MANAGEMENT TEAM FOR THIS RELEASE:
     MARK S. GORDON (TEAM LEAD),
     BRETT BODE (SENIOR ADVISOR),
     GIUSEPPE BARCA,
     COLLEEN BERTONI,
     KRISTOPHER KEIPERT (ADVISOR),
     SAROM S. LEANG (DEVELOPMENT LEAD),
     BUU PHAM,
     JACKSON HAYES (WEBSITE ADMINISTRATOR),
     PENG XU

 EXECUTION OF GAMESS BEGUN 11:51:35 29-JUL-2025    

            ECHO OF THE FIRST FEW INPUT CARDS -
 INPUT CARD>!   File created by MacMolPlt 7.7.3                                             
 INPUT CARD> $CONTRL SCFTYP=RHF RUNTYP=ENERGY EXETYP=RUN CCTYP=CCSD(T) MAXIT=30 MULT=1      
 INPUT CARD>    ISPHER=1 $END                                                               
 INPUT CARD> $SYSTEM TIMLIM=525600 MEMORY=65536000 MEMDDI=3750 $END                         
 INPUT CARD> $BASIS GBASIS=CCD $END                                                         
 INPUT CARD> $GUESS GUESS=MOREAD NORB=5 $END                                                
 INPUT CARD> $SCF DIRSCF=.TRUE. $END                                                        
 INPUT CARD> $DATA                                                                          
 INPUT CARD>Title                                                                           
 INPUT CARD>C1                                                                              
 INPUT CARD>O     8.0     0.00000    -0.06564     0.00000                                   
 INPUT CARD>H     1.0    -0.75737     0.52101     0.00000                                   
 INPUT CARD>H     1.0     0.75737     0.52101     0.00000                                   
 INPUT CARD> $END                                                                           
 INPUT CARD> $VEC                                                                           
 INPUT CARD> 1  1 1.00089800E+00 1.17099995E-03-2.67000007E-03-0.00000000E+00 1.76100002E-03
 INPUT CARD> 1  2-0.00000000E+00-0.00000000E+00-4.86000004E-04-0.00000000E+00 1.13000002E-04
 INPUT CARD> 1  3 1.10000001E-05-1.23999998E-04-0.00000000E+00-0.00000000E+00-0.00000000E+00
 INPUT CARD> 1  4-2.37000000E-04 4.21000004E-04-5.69000025E-04 4.80999995E-04-0.00000000E+00
 INPUT CARD> 1  5-2.37000000E-04 4.21000004E-04 5.69000025E-04 4.80999995E-04-0.00000000E+00
 INPUT CARD> 2  1-8.18500016E-03 4.42961991E-01 3.76201987E-01-0.00000000E+00 7.87210017E-02
 INPUT CARD> 2  2-0.00000000E+00-0.00000000E+00-1.29920002E-02-0.00000000E+00 1.97999994E-03
 INPUT CARD> 2  3 1.24500005E-03-3.22500011E-03-0.00000000E+00-0.00000000E+00-0.00000000E+00
 INPUT CARD> 2  4 1.93315998E-01 1.01020001E-02 3.72769982E-02-2.04750001E-02-0.00000000E+00
 INPUT CARD> 2  5 1.93315998E-01 1.01020001E-02-3.72769982E-02-2.04750001E-02-0.00000000E+00
 INPUT CARD> 3  1-0.00000000E+00-0.00000000E+00-0.00000000E+00 4.89895999E-01-0.00000000E+00
 INPUT CARD> 3  2-0.00000000E+00 2.22139001E-01-0.00000000E+00-0.00000000E+00-0.00000000E+00
 INPUT CARD> 3  3-0.00000000E+00-0.00000000E+00 2.67869998E-02-0.00000000E+00-0.00000000E+00
 INPUT CARD> 3  4-3.27823013E-01-8.99379998E-02-2.33110003E-02 3.26620005E-02-0.00000000E+00
 INPUT CARD> 3  5 3.27823013E-01 8.99379998E-02-2.33110003E-02-3.26620005E-02-0.00000000E+00
 INPUT CARD> 4  1 2.16699997E-03-1.50379002E-01-3.49662989E-01-0.00000000E+00 5.45377016E-01
 INPUT CARD> 4  2-0.00000000E+00-0.00000000E+00 3.65321994E-01-0.00000000E+00-4.95600002E-03
 INPUT CARD> 4  3 1.78689994E-02-1.29129998E-02-0.00000000E+00-0.00000000E+00-0.00000000E+00
 INPUT CARD> 4  4 2.06447005E-01 4.04650010E-02 3.17620002E-02 7.50900013E-03-0.00000000E+00
 INPUT CARD> 4  5 2.06447005E-01 4.04650010E-02-3.17620002E-02 7.50900013E-03-0.00000000E+00
 INPUT CARD> 5  1 0.00000000E+00 0.00000000E+00 0.00000000E+00 0.00000000E+00 0.00000000E+00
 INPUT CARD> 5  2 6.31199002E-01 0.00000000E+00 0.00000000E+00 4.95680004E-01 0.00000000E+00
 INPUT CARD> 5  3 0.00000000E+00 0.00000000E+00 0.00000000E+00 0.00000000E+00 1.81990005E-02
 INPUT CARD> 5  4 0.00000000E+00 0.00000000E+00 0.00000000E+00 0.00000000E+00 3.10520008E-02
 INPUT CARD> 5  5 0.00000000E+00 0.00000000E+00 0.00000000E+00 0.00000000E+00 3.10520008E-02
 INPUT CARD> $END                                                                           
     65536000 WORDS OF MEMORY AVAILABLE

     BASIS OPTIONS
     -------------
     GBASIS=CCD          IGAUSS=       0      POLAR=NONE    
     NDFUNC=       0     NFFUNC=       0     DIFFSP=       F
     NPFUNC=       0      DIFFS=       F     BASNAM=        


     RUN TITLE
     ---------
 Title                                                                           

 THE POINT GROUP OF THE MOLECULE IS C1      
 THE ORDER OF THE PRINCIPAL AXIS IS     0

 ATOM      ATOMIC                      COORDINATES (BOHR)
           CHARGE         X                   Y                   Z
 O           8.0     0.0000000000       -0.1240416138        0.0000000000
 H           1.0    -1.4312217713        0.9845661369        0.0000000000
 H           1.0     1.4312217713        0.9845661369        0.0000000000

          INTERNUCLEAR DISTANCES (ANGS.)
          ------------------------------

                1 O          2 H          3 H     

   1 O       0.0000000    0.9580018 *  0.9580018 *
   2 H       0.9580018 *  0.0000000    1.5147400 *
   3 H       0.9580018 *  1.5147400 *  0.0000000  

  * ... LESS THAN  3.000


     ATOMIC BASIS SET
     ----------------
 THE CONTRACTED PRIMITIVE FUNCTIONS HAVE BEEN UNNORMALIZED
 THE CONTRACTED BASIS FUNCTIONS ARE NOW NORMALIZED TO UNITY

  SHELL TYPE  PRIMITIVE        EXPONENT          CONTRACTION COEFFICIENT(S)

 O         

      1   S       1         11720.0000000    0.000709645947
      1   S       2          1759.0000000    0.005467272292
      1   S       3           400.8000000    0.027823118610
      1   S       4           113.7000000    0.104747739711
      1   S       5            37.0300000    0.282920846357
      1   S       6            13.2700000    0.448495238698
      1   S       7             5.0250000    0.270816885213
      1   S       8             1.0130000    0.015450291607

      2   S       9         11720.0000000   -0.000314443412
      2   S      10          1759.0000000   -0.002482137681
      2   S      11           400.8000000   -0.012316355382
      2   S      12           113.7000000   -0.050538917344
      2   S      13            37.0300000   -0.139384903316
      2   S      14            13.2700000   -0.325077494818
      2   S      15             5.0250000   -0.229848307588
      2   S      16             1.0130000    1.095379346788

      3   S      17             0.3023000    1.000000000000

      4   P      18            17.7000000    0.062679166282
      4   P      19             3.8540000    0.333536565879
      4   P      20             1.0460000    0.741239641640

      5   P      21             0.2753000    1.000000000000

      6   D      22             1.1850000    1.000000000000

 H         

      7   S      23            13.0100000    0.033498726390
      7   S      24             1.9620000    0.234800801174
      7   S      25             0.4446000    0.813682957883

      8   S      26             0.1220000    1.000000000000

      9   P      27             0.7270000    1.000000000000

 H         

     10   S      28            13.0100000    0.033498726390
     10   S      29             1.9620000    0.234800801174
     10   S      30             0.4446000    0.813682957883

     11   S      31             0.1220000    1.000000000000

     12   P      32             0.7270000    1.000000000000

 TOTAL NUMBER OF BASIS SET SHELLS             =   12
 NUMBER OF CARTESIAN GAUSSIAN BASIS FUNCTIONS =   25
 NOTE: THIS RUN WILL RESTRICT THE MO VARIATION SPACE TO SPHERICAL HARMONICS.
 THE NUMBER OF ORBITALS KEPT IN THE VARIATIONAL SPACE WILL BE PRINTED LATER.
 NUMBER OF ELECTRONS                          =   10
 CHARGE OF MOLECULE                           =    0
 SPIN MULTIPLICITY                            =    1
 NUMBER OF OCCUPIED ORBITALS (ALPHA)          =    5
 NUMBER OF OCCUPIED ORBITALS (BETA )          =    5
 TOTAL NUMBER OF ATOMS                        =    3
 THE NUCLEAR REPULSION ENERGY IS        9.1873682166

     $CONTRL OPTIONS
     ---------------
 SCFTYP=RHF          RUNTYP=ENERGY       EXETYP=RUN     
 MPLEVL=       0     CITYP =NONE         CCTYP =CCSD(T)      VBTYP =NONE    
 DFTTYP=NONE         TDDFT =NONE    
 MULT  =       1     ICHARG=       0     NZVAR =       0     COORD =UNIQUE  
 PP    =NONE         RELWFN=NONE         LOCAL =NONE         NUMGRD=       F
 ISPHER=       1     NOSYM =       0     MAXIT =      30     UNITS =ANGS    
 PLTORB=       F     MOLPLT=       F     AIMPAC=       F     FRIEND=        
 NPRINT=       7     IREST =       0     GEOM  =INPUT   
 NORMF =       0     NORMP =       0     ITOL  =      20     ICUT  =       9
 INTTYP=BEST         GRDTYP=BEST         QMTTOL= 1.0E-06

     $SYSTEM OPTIONS
     ---------------
  REPLICATED MEMORY=    65536000 WORDS (ON EVERY NODE).
 DISTRIBUTED MEMDDI=        3750 MILLION WORDS IN AGGREGATE,
 MEMDDI DISTRIBUTED OVER   1 PROCESSORS IS  3750000000 WORDS/PROCESSOR.
 TOTAL MEMORY REQUESTED ON EACH PROCESSOR=  3815536000 WORDS.
 TIMLIM=      525600.00 MINUTES, OR     365.0 DAYS.
 PARALL= F  BALTYP=  DLB     KDIAG=    0  COREFL= F
 MXSEQ2=     300 MXSEQ3=     150  mem10=         0  mem22=         0

          ----------------
          PROPERTIES INPUT
          ----------------

     MOMENTS            FIELD           POTENTIAL          DENSITY
 IEMOM =       1   IEFLD =       0   IEPOT =       0   IEDEN =       0
 WHERE =COMASS     WHERE =NUCLEI     WHERE =NUCLEI     WHERE =NUCLEI  
 OUTPUT=BOTH       OUTPUT=BOTH       OUTPUT=BOTH       OUTPUT=BOTH    
 IEMINT=       0   IEFINT=       0                     IEDINT=       0
                                                       MORB  =       0
          EXTRAPOLATION IN EFFECT
          SOSCF IN EFFECT
 ORBITAL PRINTING OPTION: NPREO=     1    25     2     1

     -------------------------------
     INTEGRAL TRANSFORMATION OPTIONS
     -------------------------------
     NWORD  =            0
     CUTTRF = 1.0E-09     MPTRAN =       0
     DIRTRF =       T     AOINTS =DUP     

          ----------------------
          INTEGRAL INPUT OPTIONS
          ----------------------
 NOPK  =       1 NORDER=       0 SCHWRZ=       T

     ------------------------------------------
     THE POINT GROUP IS C1 , NAXIS= 0, ORDER= 1
     ------------------------------------------

 -- VARIATIONAL SPACE WILL BE RESTRICTED TO PURE SPHERICAL HARMONICS ONLY --
 AFTER EXCLUDING CONTAMINANT COMBINATIONS FROM THE CARTESIAN GAUSSIAN BASIS
 SET, THE NUMBER OF SPHERICAL HARMONICS KEPT IN THE VARIATION SPACE IS   24

     DIMENSIONS OF THE SYMMETRY SUBSPACES ARE
 A   =   24

 ..... DONE SETTING UP THE RUN .....
 STEP CPU TIME =     0.01 TOTAL CPU TIME =          0.0 (      0.0 MIN)
 TOTAL WALL CLOCK TIME=          0.0 SECONDS, CPU UTILIZATION IS    46.87%

          ********************
          1 ELECTRON INTEGRALS
          ********************
 ...... END OF ONE-ELECTRON INTEGRALS ......
 STEP CPU TIME =     0.00 TOTAL CPU TIME =          0.0 (      0.0 MIN)
 TOTAL WALL CLOCK TIME=          0.0 SECONDS, CPU UTILIZATION IS    49.00%

          -------------
          GUESS OPTIONS
          -------------
          GUESS =MOREAD            NORB  =       5          NORDER=       0
          MIX   =       F          PRTMO =       F          PUNMO =       F
          TOLZ  = 1.0E-08          TOLE  = 1.0E-05
          SYMDEN=       F          PURIFY=       F

 INITIAL GUESS ORBITALS GENERATED BY MOREAD   ROUTINE.

 STATISTICS FOR GENERATION OF SYMMETRY ORBITAL -Q- MATRIX
 NUMBER OF CARTESIAN ATOMIC ORBITALS=         25
 NUMBER OF SPHERICAL CONTAMINANTS DROPPED=     1
 NUMBER OF LINEARLY DEPENDENT MOS DROPPED=     0
 TOTAL NUMBER OF MOS IN VARIATION SPACE=      24

 SYMMETRIES FOR INITIAL GUESS ORBITALS FOLLOW.   BOTH SET(S).
     5 ORBITALS ARE OCCUPIED (    1 CORE ORBITALS).
     1=A        2=A        3=A        4=A        5=A        6=A        7=A   
     8=A        9=A       10=A       11=A       12=A       13=A       14=A   
    15=A       16=A       17=A       18=A       19=A       20=A       21=A   
    22=A       23=A       24=A   
 ...... END OF INITIAL ORBITAL SELECTION ......
 STEP CPU TIME =     0.00 TOTAL CPU TIME =          0.0 (      0.0 MIN)
 TOTAL WALL CLOCK TIME=          0.0 SECONDS, CPU UTILIZATION IS    51.03%

                    ----------------------
                    AO INTEGRAL TECHNOLOGY
                    ----------------------
     S,P,L SHELL ROTATED AXIS INTEGRALS, REPROGRAMMED BY
        KAZUYA ISHIMURA (IMS) AND JOSE SIERRA (SYNSTAR).
     S,P,D,L SHELL ROTATED AXIS INTEGRALS PROGRAMMED BY
        KAZUYA ISHIMURA (INSTITUTE FOR MOLECULAR SCIENCE).
     S,P,D,F,G SHELL TO TOTAL QUARTET ANGULAR MOMENTUM SUM 5,
        ERIC PROGRAM BY GRAHAM FLETCHER (ELORET AND NASA ADVANCED
        SUPERCOMPUTING DIVISION, AMES RESEARCH CENTER).
     S,P,D,F,G,L SHELL GENERAL RYS QUADRATURE PROGRAMMED BY
        MICHEL DUPUIS (PACIFIC NORTHWEST NATIONAL LABORATORY).

          --------------------
          2 ELECTRON INTEGRALS
          --------------------

 DIRECT SCF METHOD SKIPS INTEGRAL STORAGE ON DISK.
 DIRECT TRANSFORMATION SKIPS AO INTEGRAL STORAGE ON DISK.
  ...... END OF TWO-ELECTRON INTEGRALS .....
 STEP CPU TIME =     0.01 TOTAL CPU TIME =          0.0 (      0.0 MIN)
 TOTAL WALL CLOCK TIME=          0.0 SECONDS, CPU UTILIZATION IS    62.01%

          --------------------------
                 RHF SCF CALCULATION
          --------------------------

     NUCLEAR ENERGY =         9.1873682166
     MAXIT =   30     NPUNCH=    2
     EXTRAP=T  DAMP=F  SHIFT=F  RSTRCT=F  DIIS=F  DEM=F  SOSCF=T
     DENSITY MATRIX CONV=  2.00E-06
     SOSCF WILL OPTIMIZE      95 ORBITAL ROTATIONS, SOGTOL=   0.250
     MEMORY REQUIRED FOR RHF ITERS=     50657 WORDS.

 DIRECT SCF CALCULATION, SCHWRZ=T   FDIFF=T,  DIRTHR=  0.00E+00 NITDIR=10
 SCHWARZ INEQUALITY OVERHEAD:       325 INTEGRALS, T=        0.00

                                                                                   NONZERO     BLOCKS
 ITER EX DEM     TOTAL ENERGY        E CHANGE  DENSITY CHANGE     ORB. GRAD      INTEGRALS    SKIPPED
   1  0  0      -76.0267610000   -76.0267610000   0.000001113   0.000000000          25620          0
          ---------------START SECOND ORDER SCF---------------
   2  1  0      -76.0267610000    -0.0000000000   0.000000690   0.000000476          25620          0
   3  2  0      -76.0267610000    -0.0000000000   0.000000191   0.000000198          25620          0

 RHF HAS CONVERGED, NOW COMPUTING EXACT TOTAL FOCK MATRIX
 FOR USE DURING THE COUPLED CLUSTER CALCULATION THAT FOLLOWS.

          -----------------
          DENSITY CONVERGED
          -----------------
     TIME TO FORM FOCK OPERATORS=       0.0 SECONDS (       0.0 SEC/ITER)
     FOCK TIME ON FIRST ITERATION=       0.0, LAST ITERATION=       0.0
     TIME TO SOLVE SCF EQUATIONS=       0.0 SECONDS (       0.0 SEC/ITER)

 FINAL RHF ENERGY IS      -76.0267610000 AFTER   3 ITERATIONS

          ------------
          EIGENVECTORS
          ------------

                      1          2          3          4          5
                  -20.5506    -1.3363    -0.6988    -0.5665    -0.4931
                     A          A          A          A          A   
    1  O  1  S    1.000898  -0.008185  -0.000000   0.002167  -0.000000
    2  O  1  S    0.001171   0.442962  -0.000000  -0.150379  -0.000000
    3  O  1  S   -0.002670   0.376202  -0.000000  -0.349663  -0.000000
    4  O  1  X   -0.000000  -0.000000   0.489896  -0.000000  -0.000000
    5  O  1  Y    0.001761   0.078721  -0.000000   0.545377  -0.000000
    6  O  1  Z   -0.000000  -0.000000  -0.000000  -0.000000   0.631199
    7  O  1  X   -0.000000  -0.000000   0.222139  -0.000000  -0.000000
    8  O  1  Y   -0.000486  -0.012992  -0.000000   0.365322  -0.000000
    9  O  1  Z   -0.000000  -0.000000  -0.000000  -0.000000   0.495679
   10  O  1 XX    0.000113   0.001980  -0.000000  -0.004956  -0.000000
   11  O  1 YY    0.000011   0.001245  -0.000000   0.017869  -0.000000
   12  O  1 ZZ   -0.000124  -0.003225  -0.000000  -0.012913  -0.000000
   13  O  1 XY   -0.000000  -0.000000   0.026787  -0.000000  -0.000000
   14  O  1 XZ   -0.000000  -0.000000  -0.000000  -0.000000  -0.000000
   15  O  1 YZ   -0.000000  -0.000000  -0.000000  -0.000000   0.018199
   16  H  2  S   -0.000237   0.193316  -0.327823   0.206447  -0.000000
   17  H  2  S    0.000421   0.010102  -0.089938   0.040465  -0.000000
   18  H  2  X   -0.000569   0.037277  -0.023311   0.031762  -0.000000
   19  H  2  Y    0.000481  -0.020475   0.032662   0.007509  -0.000000
   20  H  2  Z   -0.000000  -0.000000  -0.000000  -0.000000   0.031052
   21  H  3  S   -0.000237   0.193316   0.327823   0.206447  -0.000000
   22  H  3  S    0.000421   0.010102   0.089938   0.040465  -0.000000
   23  H  3  X    0.000569  -0.037277  -0.023311  -0.031762  -0.000000
   24  H  3  Y    0.000481  -0.020475  -0.032662   0.007509  -0.000000
   25  H  3  Z   -0.000000  -0.000000  -0.000000  -0.000000   0.031052

                      6          7          8          9         10
                    0.1854     0.2561     0.7887     0.8538     1.1636
                     A          A          A          A          A   
    1  O  1  S   -0.052051   0.000000   0.000000  -0.065334   0.003230
    2  O  1  S    0.072600   0.000000   0.000000  -0.256081   0.114917
    3  O  1  S    1.001985   0.000000   0.000000   0.320232   0.747223
    4  O  1  X   -0.000000   0.283391  -0.268059  -0.000000   0.000000
    5  O  1  Y    0.190790   0.000000   0.000000  -0.329422  -0.754486
    6  O  1  Z   -0.000000   0.000000   0.000000  -0.000000   0.000000
    7  O  1  X   -0.000000   0.670942  -0.460002  -0.000000   0.000000
    8  O  1  Y    0.337337   0.000000   0.000000   0.009535   1.278292
    9  O  1  Z   -0.000000   0.000000   0.000000  -0.000000   0.000000
   10  O  1 XX    0.004847   0.000000   0.000000   0.092126  -0.012287
   11  O  1 YY    0.007537   0.000000   0.000000   0.000980   0.012850
   12  O  1 ZZ   -0.012383   0.000000   0.000000  -0.093106  -0.000563
   13  O  1 XY   -0.000000   0.021208   0.111665  -0.000000   0.000000
   14  O  1 XZ   -0.000000   0.000000   0.000000  -0.000000   0.000000
   15  O  1 YZ   -0.000000   0.000000   0.000000  -0.000000   0.000000
   16  H  2  S   -0.059062   0.026129  -0.944267   0.787914  -0.545988
   17  H  2  S   -0.828977   1.443232   0.687296  -0.548202  -0.112932
   18  H  2  X   -0.017496   0.020784   0.073808  -0.295576  -0.084050
   19  H  2  Y    0.016301  -0.017098  -0.152639   0.059279   0.251260
   20  H  2  Z   -0.000000   0.000000   0.000000  -0.000000   0.000000
   21  H  3  S   -0.059062  -0.026129   0.944267   0.787914  -0.545988
   22  H  3  S   -0.828977  -1.443232  -0.687296  -0.548202  -0.112932
   23  H  3  X    0.017496   0.020784   0.073808   0.295576   0.084050
   24  H  3  Y    0.016301   0.017098   0.152639   0.059279   0.251260
   25  H  3  Z   -0.000000   0.000000   0.000000  -0.000000   0.000000

                     11         12         13         14         15
                    1.2004     1.2534     1.4444     1.4762     1.6743
                     A          A          A          A          A   
    1  O  1  S    0.000000  -0.000000   0.201747  -0.000000  -0.000000
    2  O  1  S    0.000000  -0.000000   0.528735  -0.000000  -0.000000
    3  O  1  S    0.000000  -0.000000  -0.504701  -0.000000  -0.000000
    4  O  1  X    0.000000  -0.734456  -0.000000  -0.000000  -0.000000
    5  O  1  Y    0.000000  -0.000000  -0.132873  -0.000000  -0.000000
    6  O  1  Z   -0.967829  -0.000000  -0.000000  -0.000000  -0.018935
    7  O  1  X    0.000000   1.763415  -0.000000  -0.000000  -0.000000
    8  O  1  Y    0.000000  -0.000000   0.740611  -0.000000  -0.000000
    9  O  1  Z    1.024637  -0.000000  -0.000000  -0.000000  -0.634048
   10  O  1 XX    0.000000  -0.000000   0.062931  -0.000000  -0.000000
   11  O  1 YY    0.000000  -0.000000  -0.117379  -0.000000  -0.000000
   12  O  1 ZZ    0.000000  -0.000000   0.054448  -0.000000  -0.000000
   13  O  1 XY    0.000000   0.044422  -0.000000  -0.000000  -0.000000
   14  O  1 XZ    0.000000  -0.000000  -0.000000  -0.131376  -0.000000
   15  O  1 YZ   -0.003474  -0.000000  -0.000000  -0.000000   0.160825
   16  H  2  S    0.000000   0.378918  -0.333802  -0.000000  -0.000000
   17  H  2  S    0.000000   0.824477   0.209114  -0.000000  -0.000000
   18  H  2  X    0.000000   0.302682  -0.330066  -0.000000  -0.000000
   19  H  2  Y    0.000000  -0.186543  -0.544957  -0.000000  -0.000000
   20  H  2  Z    0.008821  -0.000000  -0.000000   0.685573   0.766921
   21  H  3  S    0.000000  -0.378918  -0.333802  -0.000000  -0.000000
   22  H  3  S    0.000000  -0.824477   0.209114  -0.000000  -0.000000
   23  H  3  X    0.000000   0.302682   0.330066  -0.000000  -0.000000
   24  H  3  Y    0.000000   0.186543  -0.544957  -0.000000  -0.000000
   25  H  3  Z    0.008821  -0.000000  -0.000000  -0.685573   0.766921

                     16         17         18         19         20
                    1.8674     1.9343     2.4510     2.4886     3.2852
                     A          A          A          A          A   
    1  O  1  S   -0.724731   0.000000  -0.000000   0.276984  -0.000000
    2  O  1  S   -1.593800   0.000000  -0.000000   0.726583  -0.000000
    3  O  1  S    3.033442   0.000000  -0.000000   0.793975  -0.000000
    4  O  1  X   -0.000000  -0.010438   0.838394   0.000000  -0.000000
    5  O  1  Y    0.108945   0.000000  -0.000000   0.669145  -0.000000
    6  O  1  Z   -0.000000   0.000000  -0.000000   0.000000  -0.011780
    7  O  1  X   -0.000000   0.901015   0.152301   0.000000  -0.000000
    8  O  1  Y    0.967811   0.000000  -0.000000   0.180208  -0.000000
    9  O  1  Z   -0.000000   0.000000  -0.000000   0.000000   0.311280
   10  O  1 XX   -0.036626   0.000000  -0.000000  -0.161503  -0.000000
   11  O  1 YY   -0.114140   0.000000  -0.000000  -0.053021  -0.000000
   12  O  1 ZZ    0.150766   0.000000  -0.000000   0.214523  -0.000000
   13  O  1 XY   -0.000000  -0.029343  -0.138238   0.000000  -0.000000
   14  O  1 XZ   -0.000000   0.000000  -0.000000   0.000000  -0.000000
   15  O  1 YZ   -0.000000   0.000000  -0.000000   0.000000   1.042651
   16  H  2  S   -0.827786   0.387352   0.294323  -0.478207  -0.000000
   17  H  2  S   -0.387848   0.091469   0.330096  -0.159114  -0.000000
   18  H  2  X   -0.372786  -0.471383   0.724188  -0.744359  -0.000000
   19  H  2  Y   -0.022892  -0.693248  -0.554676   0.537041  -0.000000
   20  H  2  Z   -0.000000   0.000000  -0.000000   0.000000  -0.397975
   21  H  3  S   -0.827786  -0.387352  -0.294323  -0.478207  -0.000000
   22  H  3  S   -0.387848  -0.091469  -0.330096  -0.159114  -0.000000
   23  H  3  X    0.372786  -0.471383   0.724188   0.744359  -0.000000
   24  H  3  Y   -0.022892   0.693248   0.554676   0.537041  -0.000000
   25  H  3  Z   -0.000000   0.000000  -0.000000   0.000000  -0.397975

                     21         22         23         24
                    3.3381     3.5097     3.8648     4.1469
                     A          A          A          A   
    1  O  1  S   -0.000000  -0.084171  -0.143702  -0.000000
    2  O  1  S   -0.000000  -0.154160  -0.177745  -0.000000
    3  O  1  S   -0.000000   0.557341   2.267181  -0.000000
    4  O  1  X   -0.000000   0.000000   0.000000   0.467660
    5  O  1  Y   -0.000000   0.018775   0.403975  -0.000000
    6  O  1  Z   -0.000000   0.000000   0.000000  -0.000000
    7  O  1  X   -0.000000   0.000000   0.000000   1.143536
    8  O  1  Y   -0.000000   0.537260   0.921753  -0.000000
    9  O  1  Z   -0.000000   0.000000   0.000000  -0.000000
   10  O  1 XX   -0.000000  -0.694837   0.936180  -0.000000
   11  O  1 YY   -0.000000   1.084201   0.135899  -0.000000
   12  O  1 ZZ   -0.000000  -0.389364  -1.072079  -0.000000
   13  O  1 XY   -0.000000   0.000000   0.000000   1.325302
   14  O  1 XZ    1.065963   0.000000   0.000000  -0.000000
   15  O  1 YZ   -0.000000   0.000000   0.000000  -0.000000
   16  H  2  S   -0.000000  -0.305777  -1.236643   1.084644
   17  H  2  S   -0.000000  -0.037754  -0.191735   0.288383
   18  H  2  X   -0.000000  -0.352212  -0.620413   0.605502
   19  H  2  Y   -0.000000  -0.314969   0.492922  -0.493701
   20  H  2  Z    0.371046   0.000000   0.000000  -0.000000
   21  H  3  S   -0.000000  -0.305777  -1.236643  -1.084644
   22  H  3  S   -0.000000  -0.037754  -0.191735  -0.288383
   23  H  3  X   -0.000000   0.352212   0.620413   0.605502
   24  H  3  Y   -0.000000  -0.314969   0.492922   0.493701
   25  H  3  Z   -0.371046   0.000000   0.000000  -0.000000
 ...... END OF RHF CALCULATION ......
 STEP CPU TIME =     0.01 TOTAL CPU TIME =          0.0 (      0.0 MIN)
 TOTAL WALL CLOCK TIME=          0.1 SECONDS, CPU UTILIZATION IS    70.29%

     ----------------------------------------------------------------
     PROPERTY VALUES FOR THE RHF   SELF-CONSISTENT FIELD WAVEFUNCTION
     ----------------------------------------------------------------

          ---------------------------------------
          MULLIKEN AND LOWDIN POPULATION ANALYSES
          ---------------------------------------

               ----- POPULATIONS IN EACH AO -----
                             MULLIKEN      LOWDIN
              1  O  1  S      2.00176     1.90126
              2  O  1  S      0.83277     0.59257
              3  O  1  S      0.82353     0.50047
              4  O  1  X      0.77232     0.70073
              5  O  1  Y      0.92252     0.87350
              6  O  1  Z      1.12582     1.08251
              7  O  1  X      0.38158     0.53180
              8  O  1  Y      0.60460     0.69016
              9  O  1  Z      0.82916     0.79084
             10  O  1 XX      0.00204     0.18532
             11  O  1 YY      0.00018     0.17767
             12  O  1 ZZ      0.00893     0.17467
             13  O  1 XY      0.00000     0.01789
             14  O  1 XZ      0.00110     0.00000
             15  O  1 YZ      0.00000     0.00024
             16  H  2  S      0.69024     0.55178
             17  H  2  S      0.07000     0.16098
             18  H  2  X      0.03799     0.05773
             19  H  2  Y      0.02664     0.05650
             20  H  2  Z      0.02196     0.06321
             21  H  3  S      0.69024     0.55178
             22  H  3  S      0.07000     0.16098
             23  H  3  X      0.03799     0.05773
             24  H  3  Y      0.02664     0.05650
             25  H  3  Z      0.02196     0.06321

          ----- MULLIKEN ATOMIC OVERLAP POPULATIONS -----
          (OFF-DIAGONAL ELEMENTS NEED TO BE MULTIPLIED BY 2)

             1           2           3

    1    7.5749023
    2    0.3657091   0.5144763
    3    0.3657091  -0.0333457   0.5144763

          TOTAL MULLIKEN AND LOWDIN ATOMIC POPULATIONS
       ATOM         MULL.POP.    CHARGE          LOW.POP.     CHARGE
    1 O             8.306321   -0.306321         8.219603   -0.219603
    2 H             0.846840    0.153160         0.890198    0.109802
    3 H             0.846840    0.153160         0.890198    0.109802

          MULLIKEN SPHERICAL HARMONIC POPULATIONS
       ATOM           S       P       D      F      G      H      I    TOTAL
    1 O             3.66    4.64    0.01   0.00   0.00   0.00   0.00    8.31
    2 H             0.76    0.09    0.00   0.00   0.00   0.00   0.00    0.85
    3 H             0.76    0.09    0.00   0.00   0.00   0.00   0.00    0.85

          -------------------------------
          BOND ORDER AND VALENCE ANALYSIS     BOND ORDER THRESHOLD=0.050
          -------------------------------

                   BOND                       BOND                       BOND
  ATOM PAIR DIST  ORDER      ATOM PAIR DIST  ORDER      ATOM PAIR DIST  ORDER
    1   2  0.958  1.020        1   3  0.958  1.020

                       TOTAL       BONDED        FREE
      ATOM            VALENCE     VALENCE     VALENCE
    1 O                 2.041       2.041       0.000
    2 H                 1.029       1.029       0.000
    3 H                 1.029       1.029       0.000

          ---------------------
          ELECTROSTATIC MOMENTS
          ---------------------

 POINT   1           X           Y           Z (BOHR)    CHARGE
                 0.000000    0.000028    0.000000        0.00 (A.U.)
         DX          DY          DZ         /D/  (DEBYE)
    -0.000000    2.057620    0.000000    2.057620
 ...... END OF PROPERTY EVALUATION ......
 STEP CPU TIME =     0.00 TOTAL CPU TIME =          0.0 (      0.0 MIN)
 TOTAL WALL CLOCK TIME=          0.1 SECONDS, CPU UTILIZATION IS    70.97%

     ---------------------------
     COUPLED CLUSTER CALCULATION
     ---------------------------
 CCTYP                        =CCSD(T) 
 TOTAL NUMBER OF MOS          =    24
 NUMBER OF OCCUPIED MOS       =     5
 NUMBER OF FROZEN CORE MOS    =     1
 NUMBER OF FROZEN VIRTUAL MOS =     0
 MAXIMUM CC ITERATIONS        =    30
 MAXIMUM DIIS ITERATIONS      =     5
 CONVERGENCE CRITERION FOR CC =     7
 AMPLITUDE ACCURACY THRESHOLD = 0.0E+00

     --------------------------------------------
     PARTIAL TWO ELECTRON INTEGRAL TRANSFORMATION
     --------------------------------------------

 NUMBER OF CORE MOLECULAR ORBITALS     =    1
 NUMBER OF OCCUPIED MOLECULAR ORBITALS =   24
 TOTAL NUMBER OF MOLECULAR ORBITALS    =   24
 TOTAL NUMBER OF ATOMIC ORBITALS       =   25
 THRESHOLD FOR KEEPING TRANSFORMED 2E- INTEGRALS = 1.000E-09
 AO INTEGRALS WILL BE CALCULATED IN DIRECT MODE...
 EVALUATING THE FROZEN CORE ENERGY...
 ----- FROZEN CORE ENERGY =       -61.3145611767

 PLAN A: REQUIREMENTS FOR FULLY IN-MEMORY TRANSFORMATION:
 # OF WORDS AVAILABLE =             65535999
 # OF WORDS NEEDED    =               295604

 CHOOSING IN MEMORY PARTIAL TRANSFORMATION...
 DIRECT TRANSFORMATION SKIPS AO INTEGRAL STORAGE ON DISK.
 TOTAL NUMBER OF TRANSFORMED 2E- INTEGRALS KEPT =        10398
 ... END OF INTEGRAL TRANSFORMATION ...
 STEP CPU TIME =     0.01 TOTAL CPU TIME =          0.0 (      0.0 MIN)
 TOTAL WALL CLOCK TIME=          0.1 SECONDS, CPU UTILIZATION IS    74.86%

   -----------------------
   COUPLED-CLUSTER PROGRAM
   -----------------------

   -------------------------------------------------------
   P.PIECUCH, S.A.KUCHARSKI, M.WLOCH, K.KOWALSKI, M.MUSIAL
   -------------------------------------------------------

 *****************************************************************
 THE FOLLOWING PAPERS SHOULD BE CITED WHEN USING COUPLED-CLUSTER
 OPTIONS:

 CCTYP = LCCD, CCD, CCSD, CCSD(T)
 P. PIECUCH, S.A. KUCHARSKI, K. KOWALSKI, AND M. MUSIAL,
 COMP. PHYS. COMMUN. 149, 71-96 (2002).

 CCTYP = R-CC, CR-CC, CCSD(TQ), CR-CC(Q)
 P. PIECUCH, S.A. KUCHARSKI, K. KOWALSKI, AND M. MUSIAL,
 COMP. PHYS. COMMUN. 149, 71-96 (2002);
 K. KOWALSKI AND P. PIECUCH, J. CHEM. PHYS. 113, 18-35 (2000);
 K. KOWALSKI AND P. PIECUCH, J. CHEM. PHYS. 113, 5644-5652 (2000).

 CCTYP = EOM-CCSD, CR-EOM
 P. PIECUCH, S.A. KUCHARSKI, K. KOWALSKI, AND M. MUSIAL,
 COMP. PHYS. COMMUN. 149, 71-96 (2002);
 K. KOWALSKI AND P. PIECUCH, J. CHEM. PHYS. 120, 1715-1738 (2004);
 M. WLOCH, J.R. GOUR, K. KOWALSKI, AND P. PIECUCH,
 J. CHEM. PHYS. 122, 214107-1 - 214107-15 (2005).

 CCTYP = CR-CCL
 P. PIECUCH, S.A. KUCHARSKI, K. KOWALSKI, AND M. MUSIAL,
 COMP. PHYS. COMMUN. 149, 71-96 (2002);
 P. PIECUCH AND M. WLOCH, J. CHEM. PHYS. 123,
 224105-1 - 224105-10 (2005).

 CCTYP = CR-EOML
 P. PIECUCH, S.A. KUCHARSKI, K. KOWALSKI, AND M. MUSIAL,
 COMP. PHYS. COMMUN. 149, 71-96 (2002);
 P. PIECUCH, J. R. GOUR, AND M. WLOCH,
 INT. J. QUANTUM CHEM. 109, 3268-3304 (2009);
 K. KOWALSKI AND P. PIECUCH,
 J. CHEM. PHYS. 120, 1715-1738 (2004).

 IN ADDITION, THE USE OF CCPRP=.TRUE. IN $CCINP AND/OR THE USE
 OF CCPRPE=.TRUE. IN $EOMINP SHOULD REFERENCE

 M. WLOCH, J.R. GOUR, K. KOWALSKI, AND P. PIECUCH,
 J. CHEM. PHYS. 122, 214107-1 - 214107-15 (2005).
 *****************************************************************


 THE FOLLOWING CALCULATIONS WILL BE PERFORMED:
                                                     CCSD   
                                                     CCSD[T]
                                                     CCSD(T)

 THE FOLLOWING ENERGY WILL BE CONSIDERED THE HIGHEST LEVEL:    CCSD(T)
 THE AVAILABLE REPLICATED MEMORY IS    65535999 WORDS.
 CONVERGENCE THRESHOLD:   1.0E-07
 MAXIMUM NUMBER OF ITERATIONS:   30

 MEMORY TO BE USED IN CC INTEGRAL SORTING IS      167180 WORDS.
 THE MINIMUM MEMORY TO ACCOMPLISH SORTING IS       64295 WORDS.
        10398 NON-ZERO TRANSFORMED 2E- INTEGRALS WERE SORTED INTO FILE 72:
           22 [IJ|KL] TYPE,         214 [AJ|KL] TYPE,
          544 [AB|IJ] TYPE,         805 [IA|BJ] TYPE,
         3856 [AB|CI] TYPE,        4957 [AB|CD] TYPE.
 TRANSFORMED INTEGRAL FILE  9 WAS READ    3 TIMES.
 ....... DONE WITH CC INTEGRAL PREPARATION .......
 STEP CPU TIME =     0.00 TOTAL CPU TIME =          0.1 (      0.0 MIN)
 TOTAL WALL CLOCK TIME=          0.1 SECONDS, CPU UTILIZATION IS    59.68%

 MEMORY REQUIRED FOR THE CCSD ITERATIONS IS       59476 WORDS.
 ITER:  1   CCSD    CORR. ENERGY:  -0.2068768331   CONV.: -3.6720E-03
 ITER:  2   CCSD    CORR. ENERGY:  -0.2095131280   CONV.: -1.5099E-03
 ITER:  3   CCSD    CORR. ENERGY:  -0.2103646499   CONV.:  2.3885E-04
 ITER:  4   CCSD    CORR. ENERGY:  -0.2104906310   CONV.:  6.0080E-03
 ITER:  5   CCSD    CORR. ENERGY:  -0.2104933443   CONV.:  5.9847E-03
 ITER:  6   CCSD    CORR. ENERGY:  -0.2106146346   CONV.:  5.0213E-03
 ITER:  7   CCSD    CORR. ENERGY:  -0.2109734319   CONV.:  2.1728E-03
 ITER:  8   CCSD    CORR. ENERGY:  -0.2112298781   CONV.: -1.9411E-04
 ITER:  9   CCSD    CORR. ENERGY:  -0.2112476753   CONV.: -1.0793E-05
 ITER: 10   CCSD    CORR. ENERGY:  -0.2112486723   CONV.: -1.7957E-06
 ITER: 11   CCSD    CORR. ENERGY:  -0.2112489364   CONV.: -2.7525E-07
 ITER: 12   CCSD    CORR. ENERGY:  -0.2112489985   CONV.: -1.1535E-07
 ITER: 13   CCSD    CORR. ENERGY:  -0.2112490044   CONV.: -3.1490E-08
 ITER: 14   CCSD    CORR. ENERGY:  -0.2112490038   CONV.: -3.1490E-08

     THE    CCSD     ITERATIONS HAVE CONVERGED

    MBPT(2) CORRELATION ENERGY:  -0.2016822077
    CCSD    CORRELATION ENERGY:  -0.2112490038

 T1 DIAGNOSTIC        =     0.00589257
 NORM OF THE T1 VECTOR=     0.01666670
 NORM OF THE T2 VECTOR=     0.21602354

 THE FIVE LARGEST T1 AMPLITUDES ARE:
 T1 AMPLITUDE IS -0.007469 FOR I=   4 -> A=   6
 T1 AMPLITUDE IS  0.007331 FOR I=   3 -> A=  18
 T1 AMPLITUDE IS  0.005970 FOR I=   3 -> A=   7
 T1 AMPLITUDE IS -0.004985 FOR I=   4 -> A=  19
 T1 AMPLITUDE IS -0.004543 FOR I=   3 -> A=  12

 THE FIVE LARGEST SPIN-UNIQUE T2 AMPLITUDES ARE:
 T2 AMPLITUDE IS -0.051407 FOR I,J=   5   5 -> A,B=  11  11
 T2 AMPLITUDE IS -0.036115 FOR I,J=   3   3 -> A,B=   8   8
 T2 AMPLITUDE IS -0.035416 FOR I,J=   4   4 -> A,B=  10  10
 T2 AMPLITUDE IS -0.029308 FOR I,J=   3   3 -> A,B=   7   7
 T2 AMPLITUDE IS -0.028614 FOR I,J=   5   4 -> A,B=  11  10
 PRINTED T2(I-ALPHA,J-BETA -> A-ALPHA,B-BETA) VALUES
 EQUAL   T2(J-ALPHA,I-BETA -> B-ALPHA,A-BETA) AMPLITUDES.

 ....... DONE WITH CC AMPLITUDE ITERATIONS .......
 STEP CPU TIME =     0.02 TOTAL CPU TIME =          0.1 (      0.0 MIN)
 TOTAL WALL CLOCK TIME=          0.1 SECONDS, CPU UTILIZATION IS    61.93%

 MEMORY REQUIRED FOR NONITERATIVE TRIPLES (T3WT2  ) IS        54074 WORDS.

                      SUMMARY OF RESULTS

      REFERENCE ENERGY:      -76.0267610000
        MBPT(2) ENERGY:      -76.2284432077   CORR.E=  -0.2016822077
        CCSD    ENERGY:      -76.2380100038   CORR.E=  -0.2112490038
        CCSD[T] ENERGY:      -76.2411326731   CORR.E=  -0.2143716731
        CCSD(T) ENERGY:      -76.2410475573   CORR.E=  -0.2142865573

 THE FOLLOWING METHOD AND ENERGY WILL BE CONSIDERED THE HIGHEST LEVEL RESULT:
 COUPLED-CLUSTER ENERGY E(   CCSD(T)) =      -76.2410475573

 ..... DONE WITH CC NON-ITERATIVE TRIPLES CORRECTIONS .....
 STEP CPU TIME =     0.00 TOTAL CPU TIME =          0.1 (      0.0 MIN)
 TOTAL WALL CLOCK TIME=          0.1 SECONDS, CPU UTILIZATION IS    62.35%
               580000  WORDS OF DYNAMIC MEMORY USED
 EXECUTION OF GAMESS TERMINATED NORMALLY 11:51:35 29-JUL-2025    
 DDI: 263640 bytes (0.3 MB / 0 MWords) used by master data server.

 ----------------------------------------
 CPU timing information for all processes
 ========================================
 0: 0.63 + 0.21 = 0.84
 ----------------------------------------
 ddikick.x: exited gracefully.
----- accounting info -----
Files used on the parent node dodecaedro were:
-rw-r--r-- 1 paulo paulo   10618 Jul 29 11:51 /home/paulo/gamess/restart/H2O_CCSD_T.dat
-rw-r--r-- 1 paulo paulo    2466 Jul 29 11:51 /home/paulo/gamess/restart/H2O_CCSD_T.F05
-rw-r--r-- 1 paulo paulo  182232 Jul 29 11:51 /home/paulo/gamess/restart/H2O_CCSD_T.F09
-rw-r--r-- 1 paulo paulo 1668720 Jul 29 11:51 /home/paulo/gamess/restart/H2O_CCSD_T.F10
-rw-r--r-- 1 paulo paulo  130880 Jul 29 11:51 /home/paulo/gamess/restart/H2O_CCSD_T.F26R
-rw-r--r-- 1 paulo paulo       0 Jul 29 11:51 /home/paulo/gamess/restart/H2O_CCSD_T.F27R
-rw-r--r-- 1 paulo paulo  388608 Jul 29 11:51 /home/paulo/gamess/restart/H2O_CCSD_T.F70
-rw-r--r-- 1 paulo paulo  468160 Jul 29 11:51 /home/paulo/gamess/restart/H2O_CCSD_T.F71
-rw-r--r-- 1 paulo paulo 3347192 Jul 29 11:51 /home/paulo/gamess/restart/H2O_CCSD_T.F72
-rw-r--r-- 1 paulo paulo    2432 Jul 29 11:51 /home/paulo/gamess/restart/H2O_CCSD_T.F73
-rw-r--r-- 1 paulo paulo   92416 Jul 29 11:51 /home/paulo/gamess/restart/H2O_CCSD_T.F74
-rw-r--r-- 1 paulo paulo       0 Jul 29 11:51 /home/paulo/gamess/restart/H2O_CCSD_T.F75
-rw-r--r-- 1 paulo paulo       0 Jul 29 11:51 /home/paulo/gamess/restart/H2O_CCSD_T.F76
-rw-r--r-- 1 paulo paulo       0 Jul 29 11:51 /home/paulo/gamess/restart/H2O_CCSD_T.F77
Tue Jul 29 11:51:36 AM WEST 2025
0.117u 0.132s 0:01.42 16.9%	0+0k 0+8io 0pf+0w
